 -1.200000000000000E-006    0.000000000000000E+000
 -1.180000000000000E-006    0.000000000000000E+000
 -1.160000000000000E-006    0.000000000000000E+000
 -1.140000000000000E-006    0.000000000000000E+000
 -1.120000000000000E-006    0.000000000000000E+000
 -1.100000000000000E-006    0.000000000000000E+000
 -1.080000000000000E-006    0.000000000000000E+000
 -1.060000000000000E-006    0.000000000000000E+000
 -1.040000000000000E-006    0.000000000000000E+000
 -1.020000000000000E-006    0.000000000000000E+000
 -1.000000000000000E-006    0.000000000000000E+000
 -9.799999999999999E-007    0.000000000000000E+000
 -9.599999999999999E-007    0.000000000000000E+000
 -9.399999999999999E-007    0.000000000000000E+000
 -9.199999999999999E-007    0.000000000000000E+000
 -9.000000000000000E-007    0.000000000000000E+000
 -8.799999999999999E-007    0.000000000000000E+000
 -8.599999999999999E-007    0.000000000000000E+000
 -8.400000000000000E-007    0.000000000000000E+000
 -8.200000000000000E-007    0.000000000000000E+000
 -8.000000000000000E-007    0.000000000000000E+000
 -7.799999999999999E-007    0.000000000000000E+000
 -7.599999999999999E-007    0.000000000000000E+000
 -7.399999999999999E-007    0.000000000000000E+000
 -7.199999999999999E-007    0.000000000000000E+000
 -7.000000000000000E-007    0.000000000000000E+000
 -6.799999999999999E-007    0.000000000000000E+000
 -6.599999999999999E-007    0.000000000000000E+000
 -6.399999999999999E-007    0.000000000000000E+000
 -6.199999999999999E-007    0.000000000000000E+000
 -6.000000000000000E-007    0.000000000000000E+000
 -5.800000000000000E-007    0.000000000000000E+000
 -5.599999999999999E-007    0.000000000000000E+000
 -5.399999999999999E-007    0.000000000000000E+000
 -5.199999999999999E-007    0.000000000000000E+000
 -5.000000000000000E-007    0.000000000000000E+000
 -4.800000000000000E-007    0.000000000000000E+000
 -4.599999999999999E-007    0.000000000000000E+000
 -4.399999999999999E-007    0.000000000000000E+000
 -4.199999999999999E-007    0.000000000000000E+000
 -4.000000000000000E-007    0.000000000000000E+000
 -3.800000000000000E-007    0.000000000000000E+000
 -3.599999999999999E-007    0.000000000000000E+000
 -3.399999999999999E-007    0.000000000000000E+000
 -3.199999999999999E-007    0.000000000000000E+000
 -2.999999999999999E-007    0.000000000000000E+000
 -2.800000000000000E-007    0.000000000000000E+000
 -2.599999999999999E-007    0.000000000000000E+000
 -2.399999999999998E-007    0.000000000000000E+000
 -2.200000000000000E-007    0.000000000000000E+000
 -2.000000000000000E-007    0.000000000000000E+000
 -1.800000000000000E-007    0.000000000000000E+000
 -1.600000000000000E-007    0.000000000000000E+000
 -1.399999999999999E-007    0.000000000000000E+000
 -1.199999999999999E-007    0.000000000000000E+000
 -9.999999999999989E-008    0.000000000000000E+000
 -7.999999999999987E-008    0.000000000000000E+000
 -5.999999999999985E-008    0.000000000000000E+000
 -3.999999999999983E-008    0.000000000000000E+000
 -2.000000000000002E-008    0.000000000000000E+000
  0.000000000000000E+000    0.000000000000000E+000
  2.000000000000002E-008    0.000000000000000E+000
  4.000000000000004E-008    0.000000000000000E+000
  6.000000000000006E-008    0.000000000000000E+000
  8.000000000000008E-008    0.000000000000000E+000
  1.000000000000001E-007    0.000000000000000E+000
  1.200000000000001E-007    0.000000000000000E+000
  1.400000000000001E-007    0.000000000000000E+000
  1.600000000000002E-007    0.000000000000000E+000
  1.800000000000002E-007    0.000000000000000E+000
  2.000000000000000E-007    0.000000000000000E+000
  2.200000000000000E-007    0.000000000000000E+000
  2.400000000000000E-007    0.000000000000000E+000
  2.600000000000001E-007    0.000000000000000E+000
  2.800000000000001E-007    0.000000000000000E+000
  3.000000000000001E-007    0.000000000000000E+000
  3.200000000000001E-007    0.000000000000000E+000
  3.400000000000001E-007    0.000000000000000E+000
  3.600000000000002E-007    0.000000000000000E+000
  3.800000000000002E-007    0.000000000000000E+000
  4.000000000000000E-007    0.000000000000000E+000
  4.200000000000000E-007    0.000000000000000E+000
  4.400000000000000E-007    0.000000000000000E+000
  4.600000000000000E-007    0.000000000000000E+000
  4.800000000000001E-007    0.000000000000000E+000
  5.000000000000001E-007    0.000000000000000E+000
  5.200000000000001E-007    0.000000000000000E+000
  5.400000000000001E-007    0.000000000000000E+000
  5.600000000000001E-007    0.000000000000000E+000
  5.800000000000002E-007    0.000000000000000E+000
  6.000000000000002E-007    0.000000000000000E+000
  6.200000000000000E-007    0.000000000000000E+000
  6.400000000000000E-007    0.000000000000000E+000
  6.600000000000000E-007    0.000000000000000E+000
  6.800000000000001E-007    0.000000000000000E+000
  7.000000000000001E-007    0.000000000000000E+000
  7.200000000000003E-007    0.000000000000000E+000
  7.400000000000001E-007    0.000000000000000E+000
  7.599999999999999E-007    0.000000000000000E+000
  7.800000000000002E-007    0.000000000000000E+000
  8.000000000000000E-007    0.000000000000000E+000
  8.200000000000002E-007    0.000000000000000E+000
  8.400000000000000E-007    0.000000000000000E+000
  8.600000000000002E-007    0.000000000000000E+000
  8.800000000000000E-007    0.000000000000000E+000
  9.000000000000003E-007    0.000000000000000E+000
  9.200000000000001E-007    0.000000000000000E+000
  9.399999999999999E-007    0.000000000000000E+000
  9.600000000000001E-007    0.000000000000000E+000
  9.799999999999999E-007    0.000000000000000E+000
  1.000000000000000E-006    0.000000000000000E+000
  1.020000000000000E-006    0.000000000000000E+000
  1.040000000000000E-006    0.000000000000000E+000
  1.060000000000000E-006    0.000000000000000E+000
  1.080000000000000E-006    0.000000000000000E+000
  1.100000000000000E-006    0.000000000000000E+000
  1.120000000000000E-006    0.000000000000000E+000
  1.140000000000000E-006    0.000000000000000E+000
  1.160000000000000E-006    0.000000000000000E+000
  1.180000000000000E-006    0.000000000000000E+000
  1.200000000000000E-006    0.000000000000000E+000
  1.220000000000000E-006    0.000000000000000E+000
  1.240000000000000E-006    0.000000000000000E+000
  1.260000000000000E-006    0.000000000000000E+000
  1.280000000000000E-006    0.000000000000000E+000
  1.300000000000000E-006    0.000000000000000E+000
  1.320000000000000E-006    0.000000000000000E+000
  1.340000000000000E-006    0.000000000000000E+000
  1.360000000000000E-006    0.000000000000000E+000
  1.380000000000000E-006    0.000000000000000E+000
  1.400000000000000E-006    0.000000000000000E+000
  1.420000000000000E-006    0.000000000000000E+000
  1.440000000000000E-006    0.000000000000000E+000
  1.460000000000000E-006    0.000000000000000E+000
  1.480000000000000E-006    0.000000000000000E+000
  1.500000000000000E-006    0.000000000000000E+000
  1.520000000000000E-006    0.000000000000000E+000
  1.540000000000000E-006    0.000000000000000E+000
  1.560000000000000E-006    0.000000000000000E+000
  1.580000000000000E-006    0.000000000000000E+000
  1.600000000000000E-006    0.000000000000000E+000
  1.620000000000000E-006    0.000000000000000E+000
  1.640000000000000E-006    0.000000000000000E+000
  1.660000000000000E-006    0.000000000000000E+000
  1.680000000000000E-006    0.000000000000000E+000
  1.700000000000000E-006    0.000000000000000E+000
  1.720000000000000E-006    0.000000000000000E+000
  1.740000000000000E-006    0.000000000000000E+000
  1.760000000000000E-006    0.000000000000000E+000
  1.780000000000000E-006    0.000000000000000E+000
  1.800000000000000E-006    0.000000000000000E+000
  1.820000000000000E-006    0.000000000000000E+000
  1.840000000000000E-006    0.000000000000000E+000
  1.860000000000000E-006    0.000000000000000E+000
  1.880000000000000E-006    0.000000000000000E+000
  1.900000000000000E-006    0.000000000000000E+000
  1.920000000000000E-006    0.000000000000000E+000
  1.940000000000000E-006    0.000000000000000E+000
  1.960000000000000E-006    0.000000000000000E+000
  1.980000000000000E-006    0.000000000000000E+000
  2.000000000000000E-006    0.000000000000000E+000
  2.020000000000000E-006    0.000000000000000E+000
  2.040000000000000E-006    0.000000000000000E+000
  2.060000000000000E-006    0.000000000000000E+000
  2.080000000000000E-006    0.000000000000000E+000
  2.100000000000000E-006    0.000000000000000E+000
  2.120000000000000E-006    0.000000000000000E+000
  2.140000000000000E-006    0.000000000000000E+000
  2.160000000000000E-006    0.000000000000000E+000
  2.180000000000000E-006    0.000000000000000E+000
  2.200000000000000E-006    0.000000000000000E+000
  2.220000000000000E-006    0.000000000000000E+000
  2.240000000000000E-006    0.000000000000000E+000
  2.260000000000000E-006    0.000000000000000E+000
  2.280000000000000E-006    0.000000000000000E+000
  2.300000000000000E-006    0.000000000000000E+000
  2.320000000000000E-006    0.000000000000000E+000
  2.340000000000000E-006    0.000000000000000E+000
  2.360000000000000E-006    0.000000000000000E+000
  2.380000000000000E-006    0.000000000000000E+000
  2.400000000000000E-006    0.000000000000000E+000
  2.420000000000000E-006    0.000000000000000E+000
  2.440000000000000E-006    0.000000000000000E+000
  2.460000000000000E-006    0.000000000000000E+000
  2.480000000000000E-006    0.000000000000000E+000
  2.500000000000000E-006    0.000000000000000E+000
  2.520000000000000E-006    0.000000000000000E+000
  2.540000000000000E-006    0.000000000000000E+000
  2.560000000000000E-006    0.000000000000000E+000
  2.580000000000000E-006    0.000000000000000E+000
  2.600000000000000E-006    0.000000000000000E+000
  2.620000000000000E-006    0.000000000000000E+000
  2.640000000000001E-006    0.000000000000000E+000
  2.660000000000000E-006    0.000000000000000E+000
  2.680000000000000E-006    0.000000000000000E+000
  2.700000000000000E-006    0.000000000000000E+000
  2.720000000000000E-006    0.000000000000000E+000
  2.740000000000000E-006    0.000000000000000E+000
  2.760000000000000E-006    0.000000000000000E+000
  2.780000000000000E-006    0.000000000000000E+000
  2.800000000000000E-006    0.000000000000000E+000
  2.820000000000001E-006    0.000000000000000E+000
  2.840000000000000E-006    0.000000000000000E+000
  2.860000000000000E-006    0.000000000000000E+000
  2.880000000000000E-006    0.000000000000000E+000
  2.900000000000000E-006    0.000000000000000E+000
  2.920000000000000E-006    0.000000000000000E+000
  2.940000000000000E-006    0.000000000000000E+000
  2.960000000000000E-006    0.000000000000000E+000
  2.980000000000000E-006    0.000000000000000E+000
  3.000000000000000E-006    0.000000000000000E+000
  3.020000000000000E-006    0.000000000000000E+000
  3.040000000000000E-006    0.000000000000000E+000
  3.060000000000000E-006    0.000000000000000E+000
  3.080000000000000E-006    0.000000000000000E+000
  3.100000000000000E-006    0.000000000000000E+000
  3.120000000000000E-006    0.000000000000000E+000
  3.140000000000000E-006    0.000000000000000E+000
  3.160000000000000E-006    0.000000000000000E+000
  3.180000000000000E-006    0.000000000000000E+000
  3.200000000000000E-006    0.000000000000000E+000
  3.220000000000000E-006    0.000000000000000E+000
  3.240000000000000E-006    0.000000000000000E+000
  3.260000000000001E-006    0.000000000000000E+000
  3.280000000000000E-006    0.000000000000000E+000
  3.300000000000000E-006    0.000000000000000E+000
  3.320000000000000E-006    0.000000000000000E+000
  3.340000000000000E-006    0.000000000000000E+000
  3.360000000000000E-006    0.000000000000000E+000
  3.380000000000000E-006    0.000000000000000E+000
  3.400000000000000E-006    0.000000000000000E+000
  3.420000000000000E-006    0.000000000000000E+000
  3.440000000000001E-006    0.000000000000000E+000
  3.460000000000000E-006    0.000000000000000E+000
  3.480000000000000E-006    0.000000000000000E+000
  3.500000000000000E-006    0.000000000000000E+000
  3.520000000000000E-006    0.000000000000000E+000
  3.540000000000000E-006    0.000000000000000E+000
  3.560000000000000E-006    0.000000000000000E+000
  3.580000000000000E-006    0.000000000000000E+000
  3.600000000000000E-006    0.000000000000000E+000
  3.620000000000000E-006    0.000000000000000E+000
  3.640000000000000E-006    0.000000000000000E+000
  3.660000000000000E-006    0.000000000000000E+000
  3.680000000000000E-006    0.000000000000000E+000
  3.700000000000001E-006    0.000000000000000E+000
  3.720000000000000E-006    0.000000000000000E+000
  3.740000000000000E-006    0.000000000000000E+000
  3.760000000000000E-006    0.000000000000000E+000
  3.780000000000000E-006    0.000000000000000E+000
  3.800000000000000E-006    0.000000000000000E+000
  3.820000000000001E-006    0.000000000000000E+000
  3.840000000000001E-006    0.000000000000000E+000
  3.860000000000000E-006    0.000000000000000E+000
  3.880000000000000E-006    0.000000000000000E+000
  3.900000000000000E-006    0.000000000000000E+000
  3.920000000000000E-006    0.000000000000000E+000
  3.940000000000000E-006    0.000000000000000E+000
  3.959999999999999E-006    0.000000000000000E+000
  3.980000000000001E-006    0.000000000000000E+000
  4.000000000000001E-006    0.000000000000000E+000
  4.020000000000000E-006    0.000000000000000E+000
  4.040000000000000E-006    0.000000000000000E+000
  4.060000000000000E-006    0.000000000000000E+000
  4.080000000000000E-006    0.000000000000000E+000
  4.100000000000000E-006    0.000000000000000E+000
  4.120000000000000E-006    0.000000000000000E+000
  4.139999999999999E-006    0.000000000000000E+000
  4.160000000000001E-006    0.000000000000000E+000
  4.180000000000001E-006    0.000000000000000E+000
  4.200000000000000E-006    0.000000000000000E+000
  4.220000000000000E-006    0.000000000000000E+000
  4.240000000000000E-006    0.000000000000000E+000
  4.260000000000000E-006    0.000000000000000E+000
  4.280000000000000E-006    0.000000000000000E+000
  4.299999999999999E-006    0.000000000000000E+000
  4.320000000000001E-006    0.000000000000000E+000
  4.340000000000001E-006    0.000000000000000E+000
  4.360000000000001E-006    0.000000000000000E+000
  4.380000000000000E-006    0.000000000000000E+000
  4.400000000000000E-006    0.000000000000000E+000
  4.420000000000000E-006    0.000000000000000E+000
  4.440000000000000E-006    0.000000000000000E+000
  4.460000000000000E-006    0.000000000000000E+000
  4.479999999999999E-006    0.000000000000000E+000
  4.500000000000001E-006    0.000000000000000E+000
  4.520000000000001E-006    0.000000000000000E+000
  4.540000000000001E-006    0.000000000000000E+000
  4.560000000000000E-006    0.000000000000000E+000
  4.580000000000000E-006    0.000000000000000E+000
  4.600000000000000E-006    0.000000000000000E+000
  4.620000000000000E-006    0.000000000000000E+000
  4.640000000000000E-006    0.000000000000000E+000
  4.659999999999999E-006    0.000000000000000E+000
  4.680000000000001E-006    0.000000000000000E+000
  4.700000000000001E-006    0.000000000000000E+000
  4.720000000000001E-006    0.000000000000000E+000
  4.740000000000000E-006    0.000000000000000E+000
  4.760000000000000E-006    0.000000000000000E+000
  4.780000000000000E-006    0.000000000000000E+000
  4.800000000000000E-006    0.000000000000000E+000
  4.820000000000000E-006    0.000000000000000E+000
  4.839999999999999E-006    0.000000000000000E+000
  4.860000000000001E-006    0.000000000000000E+000
  4.880000000000001E-006    0.000000000000000E+000
  4.900000000000001E-006    0.000000000000000E+000
  4.920000000000000E-006    0.000000000000000E+000
  4.940000000000000E-006    0.000000000000000E+000
  4.960000000000000E-006    0.000000000000000E+000
  4.980000000000000E-006    0.000000000000000E+000
  5.000000000000000E-006    0.000000000000000E+000
  5.019999999999999E-006    0.000000000000000E+000
  5.040000000000001E-006    0.000000000000000E+000
  5.060000000000001E-006    0.000000000000000E+000
  5.080000000000000E-006    0.000000000000000E+000
  5.100000000000000E-006    0.000000000000000E+000
  5.120000000000000E-006    0.000000000000000E+000
  5.140000000000000E-006    0.000000000000000E+000
  5.160000000000000E-006    0.000000000000000E+000
  5.180000000000000E-006    0.000000000000000E+000
  5.199999999999999E-006    0.000000000000000E+000
  5.220000000000001E-006    0.000000000000000E+000
  5.240000000000001E-006    0.000000000000000E+000
  5.260000000000000E-006    0.000000000000000E+000
  5.280000000000000E-006    0.000000000000000E+000
  5.300000000000000E-006    0.000000000000000E+000
  5.320000000000000E-006    0.000000000000000E+000
  5.340000000000000E-006    0.000000000000000E+000
  5.360000000000000E-006    0.000000000000000E+000
  5.380000000000001E-006    0.000000000000000E+000
  5.400000000000001E-006    0.000000000000000E+000
  5.420000000000001E-006    0.000000000000000E+000
  5.440000000000000E-006    0.000000000000000E+000
  5.460000000000000E-006    0.000000000000000E+000
  5.480000000000000E-006    0.000000000000000E+000
  5.500000000000000E-006    0.000000000000000E+000
  5.520000000000000E-006    0.000000000000000E+000
  5.539999999999999E-006    0.000000000000000E+000
  5.560000000000001E-006    0.000000000000000E+000
  5.580000000000001E-006    0.000000000000000E+000
  5.600000000000001E-006    0.000000000000000E+000
  5.620000000000000E-006    0.000000000000000E+000
  5.640000000000000E-006    0.000000000000000E+000
  5.660000000000000E-006    0.000000000000000E+000
  5.680000000000000E-006    0.000000000000000E+000
  5.700000000000000E-006    0.000000000000000E+000
  5.719999999999999E-006    0.000000000000000E+000
  5.740000000000001E-006    0.000000000000000E+000
  5.760000000000001E-006    0.000000000000000E+000
  5.780000000000001E-006    0.000000000000000E+000
  5.800000000000000E-006    0.000000000000000E+000
  5.820000000000000E-006    0.000000000000000E+000
  5.840000000000000E-006    0.000000000000000E+000
  5.860000000000000E-006    0.000000000000000E+000
  5.880000000000000E-006    0.000000000000000E+000
  5.899999999999999E-006    0.000000000000000E+000
  5.920000000000001E-006    0.000000000000000E+000
  5.940000000000001E-006    0.000000000000000E+000
  5.960000000000001E-006    0.000000000000000E+000
  5.980000000000000E-006    0.000000000000000E+000
  6.000000000000000E-006    0.000000000000000E+000
  6.020000000000000E-006    0.000000000000000E+000
  6.040000000000000E-006    0.000000000000000E+000
  6.060000000000000E-006    0.000000000000000E+000
  6.079999999999999E-006    0.000000000000000E+000
  6.100000000000001E-006    0.000000000000000E+000
  6.120000000000001E-006    0.000000000000000E+000
  6.140000000000001E-006    0.000000000000000E+000
  6.160000000000000E-006    0.000000000000000E+000
  6.180000000000000E-006    0.000000000000000E+000
  6.200000000000000E-006    0.000000000000000E+000
  6.220000000000000E-006    0.000000000000000E+000
  6.240000000000000E-006    0.000000000000000E+000
  6.260000000000001E-006    0.000000000000000E+000
  6.280000000000001E-006    0.000000000000000E+000
  6.300000000000001E-006    0.000000000000000E+000
  6.320000000000000E-006    0.000000000000000E+000
  6.340000000000000E-006    0.000000000000000E+000
  6.360000000000000E-006    0.000000000000000E+000
  6.380000000000000E-006    0.000000000000000E+000
  6.400000000000000E-006    0.000000000000000E+000
  6.420000000000000E-006    0.000000000000000E+000
  6.439999999999999E-006    0.000000000000000E+000
  6.459999999999999E-006    0.000000000000000E+000
  6.480000000000001E-006    0.000000000000000E+000
  6.500000000000000E-006    0.000000000000000E+000
  6.520000000000000E-006    0.000000000000000E+000
  6.540000000000000E-006    5.025668093396334E-039
  6.560000000000000E-006    1.005133618679267E-038
  6.580000000000000E-006   -5.496496753526680E-039
  6.599999999999999E-006   -2.104432912641146E-038
  6.619999999999999E-006   -2.218024602877858E-039
  6.639999999999999E-006    1.980926903119547E-038
  6.660000000000001E-006    1.773434000425336E-038
  6.680000000000000E-006   -2.466911813419657E-039
  6.700000000000000E-006    1.453085597542126E-038
  6.720000000000000E-006    5.221784366923834E-038
  6.740000000000000E-006    6.068859520853630E-038
  6.760000000000000E-006   -2.023318656228964E-037
  6.779999999999999E-006   -5.133759249141638E-037
  6.799999999999999E-006   -6.156587998999387E-037
  6.819999999999999E-006   -1.312053999302031E-036
  6.840000000000001E-006   -3.003201510211898E-036
  6.860000000000000E-006   -3.846212222112922E-036
  6.880000000000000E-006   -2.964505199179170E-036
  6.900000000000000E-006   -1.113697770775333E-036
  6.920000000000000E-006    1.328494138264599E-036
  6.940000000000000E-006    3.174450374493994E-036
  6.959999999999999E-006    4.407139197629434E-036
  6.979999999999999E-006    2.761708378171981E-036
  6.999999999999999E-006   -3.419009811340802E-036
  7.020000000000001E-006   -1.285971718851209E-035
  7.040000000000000E-006   -1.741971182275998E-035
  7.060000000000000E-006   -9.071563322880999E-036
  7.080000000000000E-006    1.674060873872744E-035
  7.100000000000000E-006    5.024942222906432E-035
  7.120000000000000E-006    5.984501188532361E-035
  7.139999999999999E-006    1.421102903379971E-035
  7.159999999999999E-006   -8.656190996117075E-035
  7.179999999999999E-006   -1.865625546975677E-034
  7.200000000000001E-006   -1.797890535708560E-034
  7.220000000000000E-006    2.381809751289661E-035
  7.240000000000000E-006    3.856231360754919E-034
  7.260000000000000E-006    6.720838682441439E-034
  7.280000000000000E-006    5.238908167364201E-034
  7.300000000000000E-006   -2.976683869372588E-034
  7.319999999999999E-006   -1.560813729907054E-033
  7.339999999999999E-006   -2.375143022208198E-033
  7.359999999999999E-006   -1.499062736487249E-033
  7.380000000000000E-006    1.725398191992392E-033
  7.400000000000000E-006    6.166255709365549E-033
  7.420000000000000E-006    8.406355435844426E-033
  7.440000000000000E-006    4.118491534630014E-033
  7.460000000000000E-006   -8.392987888908897E-033
  7.480000000000000E-006   -2.404353714562423E-032
  7.499999999999999E-006   -2.980490246866028E-032
  7.519999999999999E-006   -1.049711446772639E-032
  7.540000000000001E-006    3.781469789153820E-032
  7.560000000000000E-006    9.323388703285149E-032
  7.580000000000000E-006    1.059011729703325E-031
  7.600000000000000E-006    2.226845280083381E-032
  7.620000000000000E-006   -1.638676871722444E-031
  7.640000000000000E-006   -3.600579595148760E-031
  7.660000000000000E-006   -3.755080441405980E-031
  7.679999999999999E-006   -2.186640571460927E-032
  7.699999999999999E-006    6.924018040492382E-031
  7.720000000000001E-006    1.382928282339687E-030
  7.740000000000000E-006    1.322683024429638E-030
  7.760000000000000E-006   -1.440411421580409E-031
  7.780000000000000E-006   -2.865951624252097E-030
  7.800000000000000E-006   -5.270417908238574E-030
  7.820000000000000E-006   -4.610751007671766E-030
  7.839999999999999E-006    1.359409701866103E-030
  7.859999999999999E-006    1.163326406571486E-029
  7.879999999999999E-006    1.989173973567049E-029
  7.900000000000001E-006    1.587685417715733E-029
  7.920000000000000E-006   -7.962840750706765E-030
  7.940000000000000E-006   -4.631495493446042E-029
  7.960000000000000E-006   -7.427762625908831E-029
  7.980000000000000E-006   -5.402824523737742E-029
  8.000000000000000E-006    3.933989638748756E-029
  8.019999999999999E-006    1.808873112394549E-028
  8.039999999999999E-006    2.744181564366652E-028
  8.059999999999999E-006    1.822255501662213E-028
  8.080000000000001E-006   -1.765312172643619E-028
  8.100000000000000E-006   -6.933971594993214E-028
  8.120000000000000E-006   -1.003938513723702E-027
  8.140000000000000E-006   -6.124287807498552E-028
  8.160000000000000E-006    7.409426733870486E-028
  8.180000000000000E-006    2.610799130309024E-027
  8.199999999999999E-006    3.641880833978563E-027
  8.219999999999999E-006    2.066417463814359E-027
  8.239999999999999E-006   -2.950540756684089E-027
  8.260000000000001E-006   -9.663709798382890E-027
  8.280000000000000E-006   -1.312011979705072E-026
  8.300000000000000E-006   -7.061653650436667E-027
  8.320000000000000E-006    1.123025199176721E-026
  8.340000000000000E-006    3.518919527412269E-026
  8.360000000000000E-006    4.700647717374825E-026
  8.379999999999999E-006    2.464406563474179E-026
  8.399999999999999E-006   -4.099403316640611E-026
  8.419999999999999E-006   -1.261107078346225E-025
  8.440000000000001E-006   -1.676603831445188E-025
  8.460000000000000E-006   -8.832009492708289E-026
  8.480000000000000E-006    1.435527609456668E-025
  8.500000000000000E-006    4.448008777534795E-025
  8.520000000000000E-006    5.955830500002296E-025
  8.540000000000000E-006    3.253507451481073E-025
  8.559999999999999E-006   -4.808016367352159E-025
  8.579999999999999E-006   -1.543039811158209E-024
  8.600000000000001E-006   -2.106469674229485E-024
  8.620000000000000E-006   -1.227019314463570E-024
  8.640000000000000E-006    1.528720139920484E-024
  8.660000000000000E-006    5.257589301061448E-024
  8.680000000000000E-006    7.409411270564750E-024
  8.700000000000000E-006    4.701700214078783E-024
  8.720000000000000E-006   -4.543574885664882E-024
  8.739999999999999E-006   -1.755414354754837E-023
  8.759999999999999E-006   -2.586986091057146E-023
  8.780000000000001E-006   -1.813919020558945E-023
  8.800000000000000E-006    1.221319052795526E-023
  8.820000000000000E-006    5.722529734113402E-023
  8.840000000000000E-006    8.941628769047081E-023
  8.860000000000000E-006    6.984437158672188E-023
  8.880000000000000E-006   -2.724036839498019E-023
  8.899999999999999E-006   -1.811633356770407E-022
  8.919999999999999E-006   -3.048982455808768E-022
  8.939999999999999E-006   -2.663768833083857E-022
  8.960000000000001E-006    3.418369596252000E-023
  8.980000000000000E-006    5.524012437208479E-022
  9.000000000000000E-006    1.021326206632602E-021
  9.020000000000000E-006    9.999776670954422E-022
  9.040000000000000E-006    1.084965266958983E-022
  9.060000000000000E-006   -1.601014642630398E-021
  9.079999999999999E-006   -3.343208305013674E-021
  9.099999999999999E-006   -3.675563311687840E-021
  9.119999999999999E-006   -1.185072320467612E-021
  9.140000000000001E-006    4.307753035148023E-021
  9.160000000000000E-006    1.062282764399931E-020
  9.180000000000000E-006    1.316539292871048E-020
  9.200000000000000E-006    6.821818824798734E-021
  9.220000000000000E-006   -1.023497849489240E-020
  9.240000000000000E-006   -3.246659335350014E-020
  9.259999999999999E-006   -4.573385604464997E-020
  9.279999999999999E-006   -3.210631093119094E-020
  9.299999999999999E-006    1.852213636819344E-020
  9.320000000000001E-006    9.415932213124082E-020
  9.340000000000000E-006    1.532322958818940E-019
  9.360000000000000E-006    1.351016708883984E-019
  9.380000000000000E-006   -6.071068680690266E-021
  9.400000000000000E-006   -2.532619421478491E-019
  9.420000000000000E-006   -4.916847426013495E-019
  9.439999999999999E-006   -5.246884012913520E-019
  9.459999999999999E-006   -1.664724017472022E-019
  9.479999999999999E-006    6.030425549354720E-019
  9.500000000000001E-006    1.495537067274607E-018
  9.520000000000000E-006    1.904506497573852E-018
  9.540000000000000E-006    1.136237504579549E-018
  9.560000000000000E-006   -1.116374126433848E-018
  9.580000000000000E-006   -4.241168742794707E-018
  9.600000000000000E-006   -6.482080931858504E-018
  9.619999999999999E-006   -5.426339148703762E-018
  9.639999999999999E-006    6.367482463718305E-019
  9.660000000000001E-006    1.087224451068988E-017
  9.680000000000000E-006    2.061458471606147E-017
  9.700000000000000E-006    2.203508207718411E-017
  9.720000000000000E-006    7.711249141984032E-018
  9.740000000000000E-006   -2.343890308464279E-017
  9.760000000000000E-006   -6.057287066470721E-017
  9.780000000000000E-006   -8.014755754724851E-017
  9.799999999999999E-006   -5.410042852310800E-017
  9.819999999999999E-006    3.249101668667326E-017
  9.840000000000001E-006    1.604238317275496E-016
  9.860000000000000E-006    2.652080364415021E-016
  9.880000000000000E-006    2.512596794548353E-016
  9.900000000000000E-006    3.964997134203726E-017
  9.920000000000000E-006   -3.611160273339813E-016
  9.940000000000000E-006   -7.964357463887296E-016
  9.960000000000000E-006   -9.710415804854135E-016
  9.979999999999999E-006   -5.615575560690383E-016
  9.999999999999999E-006    5.675569538880288E-016
  1.002000000000000E-005    2.126367716371227E-015
  1.004000000000000E-005    3.296992306678088E-015
  1.006000000000000E-005    2.939119666874653E-015
  1.008000000000000E-005    1.791563876206237E-016
  1.010000000000000E-005   -4.763011148960627E-015
  1.012000000000000E-005   -9.931950881272231E-015
  1.014000000000000E-005   -1.177370543781877E-014
  1.016000000000000E-005   -6.517103558136589E-015
  1.018000000000000E-005    7.288898545881500E-015
  1.020000000000000E-005    2.605526262593868E-014
  1.022000000000000E-005    4.005016781843650E-014
  1.024000000000000E-005    3.585415625383147E-014
  1.026000000000000E-005    3.185462882252690E-015
  1.028000000000000E-005   -5.559172916983879E-014
  1.030000000000000E-005   -1.180411584549695E-013
  1.032000000000000E-005   -1.429906943076537E-013
  1.034000000000000E-005   -8.591012315632246E-014
  1.036000000000000E-005    7.245050158280151E-014
  1.038000000000000E-005    2.946911188259444E-013
  1.040000000000000E-005    4.724589826496993E-013
  1.042000000000000E-005    4.510549983361752E-013
  1.044000000000000E-005    1.032402618067823E-013
  1.046000000000000E-005   -5.640706628724831E-013
  1.048000000000000E-005   -1.320331625707163E-012
  1.050000000000000E-005   -1.712055176048253E-012
  1.052000000000000E-005   -1.215546751128962E-012
  1.054000000000000E-005    4.569549143893031E-013