 -1.200000000000000E-006    0.000000000000000E+000
 -1.180000000000000E-006    0.000000000000000E+000
 -1.160000000000000E-006    0.000000000000000E+000
 -1.140000000000000E-006    0.000000000000000E+000
 -1.120000000000000E-006    0.000000000000000E+000
 -1.100000000000000E-006    0.000000000000000E+000
 -1.080000000000000E-006    0.000000000000000E+000
 -1.060000000000000E-006    0.000000000000000E+000
 -1.040000000000000E-006    0.000000000000000E+000
 -1.020000000000000E-006    0.000000000000000E+000
 -1.000000000000000E-006    0.000000000000000E+000
 -9.799999999999999E-007    0.000000000000000E+000
 -9.599999999999999E-007    0.000000000000000E+000
 -9.399999999999999E-007    0.000000000000000E+000
 -9.199999999999999E-007    0.000000000000000E+000
 -9.000000000000000E-007    0.000000000000000E+000
 -8.799999999999999E-007    0.000000000000000E+000
 -8.599999999999999E-007    0.000000000000000E+000
 -8.400000000000000E-007    0.000000000000000E+000
 -8.200000000000000E-007    0.000000000000000E+000
 -8.000000000000000E-007    0.000000000000000E+000
 -7.799999999999999E-007    0.000000000000000E+000
 -7.599999999999999E-007    0.000000000000000E+000
 -7.399999999999999E-007    0.000000000000000E+000
 -7.199999999999999E-007    0.000000000000000E+000
 -7.000000000000000E-007    0.000000000000000E+000
 -6.799999999999999E-007    0.000000000000000E+000
 -6.599999999999999E-007    0.000000000000000E+000
 -6.399999999999999E-007    0.000000000000000E+000
 -6.199999999999999E-007    0.000000000000000E+000
 -6.000000000000000E-007    0.000000000000000E+000
 -5.800000000000000E-007    0.000000000000000E+000
 -5.599999999999999E-007    0.000000000000000E+000
 -5.399999999999999E-007    0.000000000000000E+000
 -5.199999999999999E-007    0.000000000000000E+000
 -5.000000000000000E-007    0.000000000000000E+000
 -4.800000000000000E-007    0.000000000000000E+000
 -4.599999999999999E-007    0.000000000000000E+000
 -4.399999999999999E-007    0.000000000000000E+000
 -4.199999999999999E-007    0.000000000000000E+000
 -4.000000000000000E-007    0.000000000000000E+000
 -3.800000000000000E-007    0.000000000000000E+000
 -3.599999999999999E-007    0.000000000000000E+000
 -3.399999999999999E-007    0.000000000000000E+000
 -3.199999999999999E-007    0.000000000000000E+000
 -2.999999999999999E-007    0.000000000000000E+000
 -2.800000000000000E-007    0.000000000000000E+000
 -2.599999999999999E-007    0.000000000000000E+000
 -2.399999999999998E-007    0.000000000000000E+000
 -2.200000000000000E-007    0.000000000000000E+000
 -2.000000000000000E-007    0.000000000000000E+000
 -1.800000000000000E-007    0.000000000000000E+000
 -1.600000000000000E-007    0.000000000000000E+000
 -1.399999999999999E-007    0.000000000000000E+000
 -1.199999999999999E-007    0.000000000000000E+000
 -9.999999999999989E-008    0.000000000000000E+000
 -7.999999999999987E-008    0.000000000000000E+000
 -5.999999999999985E-008    0.000000000000000E+000
 -3.999999999999983E-008    0.000000000000000E+000
 -2.000000000000002E-008    0.000000000000000E+000
  0.000000000000000E+000    0.000000000000000E+000
  2.000000000000002E-008    0.000000000000000E+000
  4.000000000000004E-008    0.000000000000000E+000
  6.000000000000006E-008    0.000000000000000E+000
  8.000000000000008E-008    0.000000000000000E+000
  1.000000000000001E-007    0.000000000000000E+000
  1.200000000000001E-007    0.000000000000000E+000
  1.400000000000001E-007    0.000000000000000E+000
  1.600000000000002E-007    0.000000000000000E+000
  1.800000000000002E-007    0.000000000000000E+000
  2.000000000000000E-007    0.000000000000000E+000
  2.200000000000000E-007    0.000000000000000E+000
  2.400000000000000E-007    0.000000000000000E+000
  2.600000000000001E-007    0.000000000000000E+000
  2.800000000000001E-007    0.000000000000000E+000
  3.000000000000001E-007    0.000000000000000E+000
  3.200000000000001E-007    0.000000000000000E+000
  3.400000000000001E-007    0.000000000000000E+000
  3.600000000000002E-007    0.000000000000000E+000
  3.800000000000002E-007    0.000000000000000E+000
  4.000000000000000E-007    0.000000000000000E+000
  4.200000000000000E-007    0.000000000000000E+000
  4.400000000000000E-007    0.000000000000000E+000
  4.600000000000000E-007    0.000000000000000E+000
  4.800000000000001E-007    0.000000000000000E+000
  5.000000000000001E-007    0.000000000000000E+000
  5.200000000000001E-007    0.000000000000000E+000
  5.400000000000001E-007    0.000000000000000E+000
  5.600000000000001E-007    0.000000000000000E+000
  5.800000000000002E-007    0.000000000000000E+000
  6.000000000000002E-007    0.000000000000000E+000
  6.200000000000000E-007    0.000000000000000E+000
  6.400000000000000E-007    0.000000000000000E+000
  6.600000000000000E-007    0.000000000000000E+000
  6.800000000000001E-007    0.000000000000000E+000
  7.000000000000001E-007    0.000000000000000E+000
  7.200000000000003E-007    0.000000000000000E+000
  7.400000000000001E-007    0.000000000000000E+000
  7.599999999999999E-007    0.000000000000000E+000
  7.800000000000002E-007    0.000000000000000E+000
  8.000000000000000E-007    0.000000000000000E+000
  8.200000000000002E-007    0.000000000000000E+000
  8.400000000000000E-007    0.000000000000000E+000
  8.600000000000002E-007    0.000000000000000E+000
  8.800000000000000E-007    0.000000000000000E+000
  9.000000000000003E-007    0.000000000000000E+000
  9.200000000000001E-007    0.000000000000000E+000
  9.399999999999999E-007    0.000000000000000E+000
  9.600000000000001E-007    0.000000000000000E+000
  9.799999999999999E-007    0.000000000000000E+000
  1.000000000000000E-006    0.000000000000000E+000
  1.020000000000000E-006    0.000000000000000E+000
  1.040000000000000E-006    0.000000000000000E+000
  1.060000000000000E-006    0.000000000000000E+000
  1.080000000000000E-006    0.000000000000000E+000
  1.100000000000000E-006    0.000000000000000E+000
  1.120000000000000E-006    0.000000000000000E+000
  1.140000000000000E-006    0.000000000000000E+000
  1.160000000000000E-006    0.000000000000000E+000
  1.180000000000000E-006    0.000000000000000E+000
  1.200000000000000E-006    0.000000000000000E+000
  1.220000000000000E-006    0.000000000000000E+000
  1.240000000000000E-006    0.000000000000000E+000
  1.260000000000000E-006    0.000000000000000E+000
  1.280000000000000E-006    0.000000000000000E+000
  1.300000000000000E-006    0.000000000000000E+000
  1.320000000000000E-006    0.000000000000000E+000
  1.340000000000000E-006    0.000000000000000E+000
  1.360000000000000E-006    0.000000000000000E+000
  1.380000000000000E-006    0.000000000000000E+000
  1.400000000000000E-006    0.000000000000000E+000
  1.420000000000000E-006    0.000000000000000E+000
  1.440000000000000E-006    0.000000000000000E+000
  1.460000000000000E-006    0.000000000000000E+000
  1.480000000000000E-006    0.000000000000000E+000
  1.500000000000000E-006    0.000000000000000E+000
  1.520000000000000E-006    0.000000000000000E+000
  1.540000000000000E-006    0.000000000000000E+000
  1.560000000000000E-006    0.000000000000000E+000
  1.580000000000000E-006    0.000000000000000E+000
  1.600000000000000E-006    0.000000000000000E+000
  1.620000000000000E-006    0.000000000000000E+000
  1.640000000000000E-006    0.000000000000000E+000
  1.660000000000000E-006    0.000000000000000E+000
  1.680000000000000E-006    0.000000000000000E+000
  1.700000000000000E-006    0.000000000000000E+000
  1.720000000000000E-006    0.000000000000000E+000
  1.740000000000000E-006    0.000000000000000E+000
  1.760000000000000E-006    0.000000000000000E+000
  1.780000000000000E-006    0.000000000000000E+000
  1.800000000000000E-006    0.000000000000000E+000
  1.820000000000000E-006    0.000000000000000E+000
  1.840000000000000E-006    0.000000000000000E+000
  1.860000000000000E-006    0.000000000000000E+000
  1.880000000000000E-006    0.000000000000000E+000
  1.900000000000000E-006    0.000000000000000E+000
  1.920000000000000E-006    0.000000000000000E+000
  1.940000000000000E-006    0.000000000000000E+000
  1.960000000000000E-006    0.000000000000000E+000
  1.980000000000000E-006    0.000000000000000E+000
  2.000000000000000E-006    0.000000000000000E+000
  2.020000000000000E-006    0.000000000000000E+000
  2.040000000000000E-006    0.000000000000000E+000
  2.060000000000000E-006    0.000000000000000E+000
  2.080000000000000E-006    0.000000000000000E+000
  2.100000000000000E-006    0.000000000000000E+000
  2.120000000000000E-006    0.000000000000000E+000
  2.140000000000000E-006    0.000000000000000E+000
  2.160000000000000E-006    0.000000000000000E+000
  2.180000000000000E-006    0.000000000000000E+000
  2.200000000000000E-006    0.000000000000000E+000
  2.220000000000000E-006    0.000000000000000E+000
  2.240000000000000E-006    0.000000000000000E+000
  2.260000000000000E-006    0.000000000000000E+000
  2.280000000000000E-006    0.000000000000000E+000
  2.300000000000000E-006    0.000000000000000E+000
  2.320000000000000E-006    0.000000000000000E+000
  2.340000000000000E-006    0.000000000000000E+000
  2.360000000000000E-006    0.000000000000000E+000
  2.380000000000000E-006    0.000000000000000E+000
  2.400000000000000E-006    0.000000000000000E+000
  2.420000000000000E-006    0.000000000000000E+000
  2.440000000000000E-006    0.000000000000000E+000
  2.460000000000000E-006    1.082789910445710E-037
  2.480000000000000E-006   -6.420084217182426E-038
  2.500000000000000E-006    1.294205390884158E-038
  2.520000000000000E-006    4.469633164848261E-037
  2.540000000000000E-006   -1.745783523027814E-036
  2.560000000000000E-006    1.026908407725056E-036
  2.580000000000000E-006    1.618619005922560E-036
  2.600000000000000E-006   -3.978560483216561E-036
  2.620000000000000E-006    7.104343110314323E-036
  2.640000000000001E-006   -8.249212836316433E-037
  2.660000000000000E-006   -1.945514158594765E-035
  2.680000000000000E-006    2.515396224244348E-035
  2.700000000000000E-006    3.612379760587122E-036
  2.720000000000000E-006   -4.895514883726183E-035
  2.740000000000000E-006    5.685890938876247E-035
  2.760000000000000E-006   -1.251692984172660E-035
  2.780000000000000E-006   -1.011988175358000E-034
  2.800000000000000E-006    2.123226233695561E-034
  2.820000000000001E-006   -2.731171488143043E-035
  2.840000000000000E-006   -3.279587716412778E-034
  2.860000000000000E-006    3.510431185747021E-034
  2.880000000000000E-006   -1.845321812384040E-034
  2.900000000000000E-006   -3.582255581775505E-034
  2.920000000000000E-006    1.488050188702245E-033
  2.940000000000000E-006   -7.010163079979841E-034
  2.960000000000000E-006   -2.051859179506085E-033
  2.980000000000000E-006    2.019034784310314E-033
  3.000000000000000E-006   -1.181469525786515E-033
  3.020000000000000E-006    1.636995909821984E-034
  3.040000000000000E-006    8.416830586896194E-033
  3.060000000000000E-006   -8.133678851960433E-033
  3.080000000000000E-006   -1.067375404967766E-032
  3.100000000000000E-006    1.153025418976228E-032
  3.120000000000000E-006   -7.094323569512498E-033
  3.140000000000000E-006    1.273552454409263E-032
  3.160000000000000E-006    4.250247048064128E-032
  3.180000000000000E-006   -6.142490784743850E-032
  3.200000000000000E-006   -4.763167101841517E-032
  3.220000000000000E-006    4.916440022915101E-032
  3.240000000000000E-006   -4.843831350606298E-032
  3.260000000000001E-006    1.361171386224902E-031
  3.280000000000000E-006    2.203118977975369E-031
  3.300000000000000E-006   -3.658346924025018E-031
  3.320000000000000E-006   -2.082196725680566E-031
  3.340000000000000E-006    8.911019178074643E-032
  3.360000000000000E-006   -3.569461107216841E-031
  3.380000000000000E-006    1.021490938267612E-030
  3.400000000000000E-006    1.267594932369872E-030
  3.420000000000000E-006   -1.616773020649500E-030
  3.440000000000001E-006   -8.860373382314464E-031
  3.460000000000000E-006   -1.085541595553943E-030
  3.480000000000000E-006   -2.945525960466989E-030
  3.500000000000000E-006    6.277341101297584E-030
  3.520000000000000E-006    8.052722890478300E-030
  3.540000000000000E-006   -4.252599555493268E-030
  3.560000000000000E-006   -2.986317464300239E-030
  3.580000000000000E-006   -1.382184164136832E-029
  3.600000000000000E-006   -2.273062620999614E-029
  3.620000000000000E-006    2.822359403809318E-029
  3.640000000000000E-006    4.441869126312507E-029
  3.660000000000000E-006    8.998747587444258E-030
  3.680000000000000E-006    1.015338880866762E-029
  3.700000000000001E-006   -8.959878075058726E-029
  3.720000000000000E-006   -1.578227411480870E-028
  3.740000000000000E-006    6.664617583247874E-029
  3.760000000000000E-006    1.873035310777327E-028
  3.780000000000000E-006    1.816694178873335E-028
  3.800000000000000E-006    2.175774709411361E-028
  3.820000000000001E-006   -3.811828529946068E-028
  3.840000000000001E-006   -8.271799329525895E-028
  3.860000000000000E-006   -4.072989282725452E-029
  3.880000000000000E-006    5.475124998790217E-028
  3.900000000000000E-006    1.063314405175187E-027
  3.920000000000000E-006    1.324799053556907E-027
  3.940000000000000E-006   -1.583090884677699E-027
  3.959999999999999E-006   -3.589831109459828E-027
  3.980000000000001E-006   -2.555311131184523E-028
  4.000000000000001E-006    3.626099839089840E-027
  4.020000000000000E-006    7.385914199939750E-027
  4.040000000000000E-006    4.468087671561725E-027
  4.060000000000000E-006   -1.652188137872156E-026
  4.080000000000000E-006   -3.078711684093973E-026
  4.100000000000000E-006   -8.264805688785621E-027
  4.120000000000000E-006    4.587585441519261E-026
  4.139999999999999E-006    1.095012460195556E-025
  4.160000000000001E-006    8.870182822087967E-026
  4.180000000000001E-006   -1.171106306147950E-025
  4.200000000000000E-006   -3.866550233258161E-025
  4.220000000000000E-006   -4.250061075176416E-025
  4.240000000000000E-006    5.708306807604521E-026
  4.260000000000000E-006    1.084580966730202E-024
  4.280000000000000E-006    1.840047436674858E-024
  4.299999999999999E-006    9.219078772791940E-025
  4.320000000000001E-006   -2.202493675724861E-024
  4.340000000000001E-006   -5.996000035938271E-024
  4.360000000000001E-006   -6.372942588490488E-024
  4.380000000000000E-006    1.165547037334288E-024
  4.400000000000000E-006    1.548226819346479E-023
  4.420000000000000E-006    2.577340754366437E-023
  4.440000000000000E-006    1.537765783561278E-023
  4.460000000000000E-006   -2.518362143057729E-023
  4.479999999999999E-006   -7.825855255893056E-023
  4.500000000000001E-006   -9.195466503527165E-023
  4.520000000000001E-006   -9.794063789469596E-024
  4.540000000000001E-006    1.687628748605139E-022
  4.560000000000000E-006    3.323652449725193E-022
  4.580000000000000E-006    2.728288823088736E-022
  4.600000000000000E-006   -1.652799387065208E-022
  4.620000000000000E-006   -8.527826323642032E-022
  4.640000000000000E-006   -1.251171792302044E-021
  4.659999999999999E-006   -6.202271831318681E-022
  4.680000000000001E-006    1.340446049021610E-021
  4.700000000000001E-006    3.721338575830973E-021
  4.720000000000001E-006    4.270698926833573E-021
  4.740000000000000E-006    6.109365029012948E-022
  4.760000000000000E-006   -7.273017394030177E-021
  4.780000000000000E-006   -1.476830079007109E-020
  4.800000000000000E-006   -1.332152189684092E-020
  4.820000000000000E-006    3.958599194652524E-021
  4.839999999999999E-006    3.336823261813200E-020
  4.860000000000001E-006    5.475834650614351E-020
  4.880000000000001E-006    3.782320567490389E-020
  4.900000000000001E-006   -3.506603410872607E-020
  4.920000000000000E-006   -1.387793532195485E-019
  4.940000000000000E-006   -1.929799530813271E-019
  4.960000000000000E-006   -9.583611610259258E-020
  4.980000000000000E-006    1.898072481000514E-019
  5.000000000000000E-006    5.403188390858053E-019
  5.019999999999999E-006    6.549380526834877E-019
  5.040000000000001E-006    2.050720145543476E-019
  5.060000000000001E-006   -8.575501335656138E-019
  5.080000000000000E-006   -2.006322129088765E-018
  5.100000000000000E-006   -2.165678810050545E-018
  5.120000000000000E-006   -3.055003044090028E-019
  5.140000000000000E-006    3.499756446625582E-018
  5.160000000000000E-006    7.194224154789605E-018
  5.180000000000000E-006    7.058513364840654E-018
  5.199999999999999E-006   -8.435475255994594E-020
  5.220000000000001E-006   -1.333284011264625E-017
  5.240000000000001E-006   -2.513478892602499E-017
  5.260000000000000E-006   -2.293746482882291E-017
  5.280000000000000E-006    3.034136609653290E-018
  5.300000000000000E-006    4.820981570226896E-017
  5.320000000000000E-006    8.610834014829267E-017
  5.340000000000000E-006    7.509270766720687E-017
  5.360000000000000E-006   -1.527358628977775E-017
  5.380000000000001E-006   -1.669017937586766E-016
  5.400000000000001E-006   -2.904415873585765E-016
  5.420000000000001E-006   -2.495158570906789E-016
  5.440000000000000E-006    5.292078948490712E-017
  5.460000000000000E-006    5.552390105159403E-016
  5.480000000000000E-006    9.662239636235452E-016
  5.500000000000000E-006    8.437333329823095E-016
  5.520000000000000E-006   -1.308905468820078E-016
  5.539999999999999E-006   -1.773903690742294E-015
  5.560000000000001E-006   -3.168246984472432E-015
  5.580000000000001E-006   -2.895310244472362E-015
  5.600000000000001E-006    1.197834123433897E-016
  5.620000000000000E-006    5.414452975387277E-015
  5.640000000000000E-006    1.020781430859997E-014
  5.660000000000000E-006    1.000767216074599E-014
  5.680000000000000E-006    1.125123604480910E-015
  5.700000000000000E-006   -1.560646954190498E-014
  5.719999999999999E-006   -3.213194839977398E-014
  5.740000000000001E-006   -3.448670998670531E-014
  5.760000000000001E-006   -9.963307663680595E-015
  5.780000000000001E-006    4.150130916253999E-014
  5.800000000000000E-006    9.795693049564795E-014
  5.820000000000000E-006    1.171284859419234E-013
  5.840000000000000E-006    5.570120994347763E-014
  5.860000000000000E-006   -9.670805963955301E-014
  5.880000000000000E-006   -2.854733717856326E-013
  5.899999999999999E-006   -3.873901129736667E-013
  5.920000000000001E-006   -2.583522692553012E-013
  5.940000000000001E-006    1.690958221434253E-013
  5.960000000000001E-006    7.790208431044164E-013
  5.980000000000000E-006    1.231599294152639E-012
  6.000000000000000E-006    1.065093718811871E-012
  6.020000000000000E-006   -3.922690254221193E-014
  6.040000000000000E-006   -1.916637220806270E-012
  6.060000000000000E-006   -3.704869947572922E-012
  6.079999999999999E-006   -3.999836311777832E-012
  6.100000000000001E-006   -1.516506105133040E-012
  6.120000000000001E-006    3.885516396071356E-012
  6.140000000000001E-006    1.030711455373579E-011
  6.160000000000000E-006    1.377483196580459E-011
  6.180000000000000E-006    9.667659251746361E-012
  6.200000000000000E-006   -4.423040932881607E-012
  6.220000000000000E-006   -2.544833232357482E-011
  6.240000000000000E-006   -4.328009856344198E-011
  6.260000000000001E-006   -4.293398308251189E-011
  6.280000000000001E-006   -1.170033022324354E-011
  6.300000000000001E-006    5.039455559174831E-011
  6.320000000000000E-006    1.217001270847712E-010
  6.340000000000000E-006    1.587789297927130E-010
  6.360000000000000E-006    1.110895096029766E-010
  6.380000000000000E-006   -4.918119214534318E-011
  6.400000000000000E-006   -2.918410370240056E-010
  6.420000000000000E-006   -5.080796283134778E-010
  6.439999999999999E-006   -5.288462193955665E-010
  6.459999999999999E-006   -1.974277162146726E-010
  6.480000000000001E-006    5.143218564420022E-010
  6.500000000000000E-006    1.393660889854860E-009
  6.520000000000000E-006    1.957649283432641E-009
  6.540000000000000E-006    1.586800021522531E-009
  6.560000000000000E-006   -1.509511240566918E-010
  6.580000000000000E-006   -3.068066282101268E-009
  6.599999999999999E-006   -6.032451034675140E-009
  6.619999999999999E-006   -7.049471763817495E-009
  6.639999999999999E-006   -3.991986282998673E-009
  6.660000000000001E-006    4.046381912993685E-009
  6.680000000000000E-006    1.524266952331516E-008
  6.700000000000000E-006    2.429497219965342E-008
  6.720000000000000E-006    2.349219502575314E-008
  6.740000000000000E-006    6.193034335627262E-009
  6.760000000000000E-006   -2.790743493292895E-008
  6.779999999999999E-006   -6.800586944521993E-008
  6.799999999999999E-006   -9.148898873477550E-008
  6.819999999999999E-006   -7.067304706140273E-008
  6.840000000000001E-006    1.227336080173126E-008
  6.860000000000000E-006    1.464540310955797E-007
  6.880000000000000E-006    2.792534106751751E-007
  6.900000000000000E-006    3.219583763326785E-007
  6.920000000000000E-006    1.831532778556023E-007
  6.940000000000000E-006   -1.730644657829795E-007
  6.959999999999999E-006   -6.653659611870976E-007
  6.979999999999999E-006   -1.067970098496735E-006
  6.999999999999999E-006   -1.058887519933409E-006
  7.020000000000001E-006   -3.628082434206052E-007
  7.040000000000000E-006    1.040740297635129E-006
  7.060000000000000E-006    2.734528601860976E-006
  7.080000000000000E-006    3.839313088477126E-006
  7.100000000000000E-006    3.266404057089323E-006
  7.120000000000000E-006    2.657706346847893E-007
  7.139999999999999E-006   -4.885683709975410E-006
  7.159999999999999E-006   -1.039655871197704E-005
  7.179999999999999E-006   -1.310268652582245E-005
  7.200000000000001E-006   -9.542661097772804E-006
  7.220000000000000E-006    2.115081201493272E-006
  7.240000000000000E-006    1.994597331316682E-005
  7.260000000000000E-006    3.710924873961198E-005
  7.280000000000000E-006    4.293318610623070E-005
  7.300000000000000E-006    2.693711133491360E-005
  7.319999999999999E-006   -1.485937422062199E-005
  7.339999999999999E-006   -7.371611387955857E-005
  7.359999999999999E-006   -1.257298504282019E-004
  7.380000000000000E-006   -1.367607782286438E-004
  7.400000000000000E-006   -7.608448988288595E-005
  7.420000000000000E-006    6.411757289104249E-005
  7.440000000000000E-006    2.512352691574782E-004
  7.460000000000000E-006    4.076337939634733E-004
  7.480000000000000E-006    4.286304890203369E-004
  7.499999999999999E-006    2.253123394723189E-004
  7.519999999999999E-006   -2.180282095156459E-004
  7.540000000000001E-006   -7.954019360898201E-004
  7.560000000000000E-006   -1.270489123523828E-003
  7.580000000000000E-006   -1.333194611330734E-003
  7.600000000000000E-006   -7.248429976830638E-004
  7.620000000000000E-006    5.990123896529594E-004
  7.640000000000000E-006    2.334186637170083E-003
  7.660000000000000E-006    3.805380571064199E-003
  7.679999999999999E-006    4.122053928824455E-003
  7.699999999999999E-006    2.520278865719117E-003
  7.720000000000001E-006   -1.191673478237721E-003
  7.740000000000000E-006   -6.255909588827761E-003
  7.760000000000000E-006   -1.087285284330405E-002
  7.780000000000000E-006   -1.257109387348225E-002
  7.800000000000000E-006   -9.072712488524643E-003
  7.820000000000000E-006    5.330369167550232E-004
  7.839999999999999E-006    1.472077720506363E-002
  7.859999999999999E-006    2.910649133781512E-002
  7.879999999999999E-006    3.714635288970821E-002
  7.900000000000001E-006    3.212323674398327E-002
  7.920000000000000E-006    1.008185294201705E-002
  7.940000000000000E-006   -2.718233288505629E-002
  7.960000000000000E-006   -7.035894917772781E-002
  7.980000000000000E-006   -0.103346477184326     
  8.000000000000000E-006   -0.107173649271992     
  8.019999999999999E-006   -6.677212343171235E-002
  8.039999999999999E-006    2.105014889817904E-002
  8.059999999999999E-006    0.141206417072090     
  8.080000000000001E-006    0.258703473733615     
  8.100000000000000E-006    0.324320930481204     
  8.120000000000000E-006    0.288241310720747     
  8.140000000000000E-006    0.119450650305454     
  8.160000000000000E-006   -0.174294108084466     
  8.180000000000000E-006   -0.533311979778185     
  8.199999999999999E-006   -0.847281927210496     
  8.219999999999999E-006   -0.976108180362829     
  8.239999999999999E-006   -0.790229168304004     
  8.260000000000001E-006   -0.223052580255177     
  8.280000000000000E-006    0.678977535739524     
  8.300000000000000E-006     1.72780745496589     
  8.320000000000000E-006     2.60520863106288     
  8.340000000000000E-006     2.92520817157602     
  8.360000000000000E-006     2.34426765704248     
  8.379999999999999E-006    0.697684919424032     
  8.399999999999999E-006    -1.87639099344600     
  8.419999999999999E-006    -4.87293448246765     
  8.440000000000001E-006    -7.45875074119980     
  8.460000000000000E-006    -8.63473020638656     
  8.480000000000000E-006    -7.50580981876617     
  8.500000000000000E-006    -3.60073713910892     
  8.520000000000000E-006     2.85037672819858     
  8.540000000000000E-006     10.7838383497168     
  8.559999999999999E-006     18.3955665656766     
  8.579999999999999E-006     23.4830759112211     
  8.600000000000001E-006     23.9800939435214     
  8.620000000000000E-006     18.5513245906952     
  8.640000000000000E-006     7.06875107358893     
  8.660000000000000E-006    -9.19933315109304     
  8.680000000000000E-006    -27.7837995130231     
  8.700000000000000E-006    -45.5730597763548     
  8.720000000000000E-006    -59.5840133859121     
  8.739999999999999E-006    -67.7057192554028     
  8.759999999999999E-006    -69.1627150179512     
  8.780000000000001E-006    -64.5267528753557     
  8.800000000000000E-006    -55.2557449546746     
  8.820000000000000E-006    -42.9045075285135     
  8.840000000000000E-006    -28.2624994976948     
  8.860000000000000E-006    -10.6644287234041     
  8.880000000000000E-006     12.4165935082018     
  8.899999999999999E-006     45.6039508191906     
  8.919999999999999E-006     96.0250422238134     
  8.939999999999999E-006     174.352585645545     
  8.960000000000001E-006     296.882475341696     
  8.980000000000000E-006     488.796075573138     
  9.000000000000000E-006     788.390911011104     
  9.020000000000000E-006     1251.72130047698     
  9.040000000000000E-006     1956.89921074836     
  9.060000000000000E-006     3007.36112836480     
  9.079999999999999E-006     4533.64702444802     
  9.099999999999999E-006     6693.60149650126     
  9.119999999999999E-006     9670.92008462181     
  9.140000000000001E-006     13671.9061986958     
  9.160000000000000E-006     18919.6127894496     
  9.180000000000000E-006     25643.6117010945     
  9.200000000000000E-006     34063.3125449076     
  9.220000000000000E-006     44362.1516953197     
  9.240000000000000E-006     56650.6474696290     
  9.259999999999999E-006     70918.6923051741     
  9.279999999999999E-006     86979.2837737943     
  9.299999999999999E-006     104408.349938882     
  9.320000000000001E-006     122488.741592625     
  9.340000000000000E-006     140167.506691164     
  9.360000000000000E-006     156034.638829192     
  9.380000000000000E-006     168332.984403091     
  9.400000000000000E-006     175003.772772325     
  9.420000000000000E-006     173773.798261712     
  9.439999999999999E-006     162284.503607829     
  9.459999999999999E-006     138261.776769219     
  9.479999999999999E-006     99723.4909637324     
  9.500000000000001E-006     45215.2155773498     
  9.520000000000000E-006    -25939.5552800436     
  9.540000000000000E-006    -113393.289179636     
  9.560000000000000E-006    -215558.164270867     
  9.580000000000000E-006    -329450.902623640     
  9.600000000000000E-006    -450626.525266492     
  9.619999999999999E-006    -573226.016950207     
  9.639999999999999E-006    -690163.015786260     
  9.660000000000001E-006    -793451.796247565     
  9.680000000000000E-006    -874668.510747534     
  9.700000000000000E-006    -925524.084802003     
  9.720000000000000E-006    -938511.250841571     
  9.740000000000000E-006    -907575.915002570     
  9.760000000000000E-006    -828755.044145104     
  9.780000000000000E-006    -700719.702941406     
  9.799999999999999E-006    -525169.068083988     
  9.819999999999999E-006    -307023.343040246     
  9.840000000000001E-006    -54368.6897348864     
  9.860000000000000E-006     221852.613543454     
  9.880000000000000E-006     508401.358832338     
  9.900000000000000E-006     790527.103793829     
  9.920000000000000E-006     1052915.95557674     
  9.940000000000000E-006     1280723.56519499     
  9.960000000000000E-006     1460607.86101020     
  9.979999999999999E-006     1581676.31731473     
  9.999999999999999E-006     1636264.45139782     
  1.002000000000000E-005     1620492.91051182     
  1.004000000000000E-005     1534555.77222603     
  1.006000000000000E-005     1382712.58823156     
  1.008000000000000E-005     1173008.12127371     
  1.010000000000000E-005     916721.578152782     
  1.012000000000000E-005     627593.316388588     
  1.014000000000000E-005     320884.570345649     
  1.016000000000000E-005     12341.6457062643     
  1.018000000000000E-005    -282849.479900406     
  1.020000000000000E-005    -551025.613356826     
  1.022000000000000E-005    -780849.125410084     
  1.024000000000000E-005    -963882.659887665     
  1.026000000000000E-005    -1094904.63019707     
  1.028000000000000E-005    -1171958.85616603     
  1.030000000000000E-005    -1196160.38267760     
  1.032000000000000E-005    -1171313.52535494     
  1.034000000000000E-005    -1103412.11436687     
  1.036000000000000E-005    -1000056.57208909     
  1.038000000000000E-005    -869837.522030027     
  1.040000000000000E-005    -721732.224408239     
  1.042000000000000E-005    -564553.871152774     
  1.044000000000000E-005    -406466.746457975     
  1.046000000000000E-005    -254584.436807070     
  1.048000000000000E-005    -114697.114932047     
  1.050000000000000E-005     8864.07757206960     
  1.052000000000000E-005     113244.029111879     
  1.054000000000000E-005     196982.234534985     