 -1.200000000000000E-006    0.000000000000000E+000
 -1.180000000000000E-006    0.000000000000000E+000
 -1.160000000000000E-006    0.000000000000000E+000
 -1.140000000000000E-006    0.000000000000000E+000
 -1.120000000000000E-006    0.000000000000000E+000
 -1.100000000000000E-006    0.000000000000000E+000
 -1.080000000000000E-006    0.000000000000000E+000
 -1.060000000000000E-006    0.000000000000000E+000
 -1.040000000000000E-006    0.000000000000000E+000
 -1.020000000000000E-006    0.000000000000000E+000
 -1.000000000000000E-006    0.000000000000000E+000
 -9.799999999999999E-007    0.000000000000000E+000
 -9.599999999999999E-007    0.000000000000000E+000
 -9.399999999999999E-007    0.000000000000000E+000
 -9.199999999999999E-007    0.000000000000000E+000
 -9.000000000000000E-007    0.000000000000000E+000
 -8.799999999999999E-007    0.000000000000000E+000
 -8.599999999999999E-007    0.000000000000000E+000
 -8.400000000000000E-007    0.000000000000000E+000
 -8.200000000000000E-007    0.000000000000000E+000
 -8.000000000000000E-007    0.000000000000000E+000
 -7.799999999999999E-007    0.000000000000000E+000
 -7.599999999999999E-007    0.000000000000000E+000
 -7.399999999999999E-007    0.000000000000000E+000
 -7.199999999999999E-007    0.000000000000000E+000
 -7.000000000000000E-007    0.000000000000000E+000
 -6.799999999999999E-007    0.000000000000000E+000
 -6.599999999999999E-007    0.000000000000000E+000
 -6.399999999999999E-007    0.000000000000000E+000
 -6.199999999999999E-007    0.000000000000000E+000
 -6.000000000000000E-007    0.000000000000000E+000
 -5.800000000000000E-007    0.000000000000000E+000
 -5.599999999999999E-007    0.000000000000000E+000
 -5.399999999999999E-007    0.000000000000000E+000
 -5.199999999999999E-007    0.000000000000000E+000
 -5.000000000000000E-007    0.000000000000000E+000
 -4.800000000000000E-007    0.000000000000000E+000
 -4.599999999999999E-007    0.000000000000000E+000
 -4.399999999999999E-007    0.000000000000000E+000
 -4.199999999999999E-007    0.000000000000000E+000
 -4.000000000000000E-007    0.000000000000000E+000
 -3.800000000000000E-007    0.000000000000000E+000
 -3.599999999999999E-007    0.000000000000000E+000
 -3.399999999999999E-007    0.000000000000000E+000
 -3.199999999999999E-007    0.000000000000000E+000
 -2.999999999999999E-007    0.000000000000000E+000
 -2.800000000000000E-007    0.000000000000000E+000
 -2.599999999999999E-007    0.000000000000000E+000
 -2.399999999999998E-007    0.000000000000000E+000
 -2.200000000000000E-007    0.000000000000000E+000
 -2.000000000000000E-007    0.000000000000000E+000
 -1.800000000000000E-007    0.000000000000000E+000
 -1.600000000000000E-007    0.000000000000000E+000
 -1.399999999999999E-007    0.000000000000000E+000
 -1.199999999999999E-007    0.000000000000000E+000
 -9.999999999999989E-008    0.000000000000000E+000
 -7.999999999999987E-008    0.000000000000000E+000
 -5.999999999999985E-008    0.000000000000000E+000
 -3.999999999999983E-008    0.000000000000000E+000
 -2.000000000000002E-008    0.000000000000000E+000
  0.000000000000000E+000    0.000000000000000E+000
  2.000000000000002E-008    0.000000000000000E+000
  4.000000000000004E-008    0.000000000000000E+000
  6.000000000000006E-008    0.000000000000000E+000
  8.000000000000008E-008    0.000000000000000E+000
  1.000000000000001E-007    0.000000000000000E+000
  1.200000000000001E-007    0.000000000000000E+000
  1.400000000000001E-007    0.000000000000000E+000
  1.600000000000002E-007    0.000000000000000E+000
  1.800000000000002E-007    0.000000000000000E+000
  2.000000000000000E-007    0.000000000000000E+000
  2.200000000000000E-007    0.000000000000000E+000
  2.400000000000000E-007    0.000000000000000E+000
  2.600000000000001E-007    0.000000000000000E+000
  2.800000000000001E-007    0.000000000000000E+000
  3.000000000000001E-007    0.000000000000000E+000
  3.200000000000001E-007    0.000000000000000E+000
  3.400000000000001E-007    0.000000000000000E+000
  3.600000000000002E-007    0.000000000000000E+000
  3.800000000000002E-007    0.000000000000000E+000
  4.000000000000000E-007    0.000000000000000E+000
  4.200000000000000E-007    0.000000000000000E+000
  4.400000000000000E-007    0.000000000000000E+000
  4.600000000000000E-007    0.000000000000000E+000
  4.800000000000001E-007    0.000000000000000E+000
  5.000000000000001E-007    0.000000000000000E+000
  5.200000000000001E-007    0.000000000000000E+000
  5.400000000000001E-007    0.000000000000000E+000
  5.600000000000001E-007    0.000000000000000E+000
  5.800000000000002E-007    0.000000000000000E+000
  6.000000000000002E-007    0.000000000000000E+000
  6.200000000000000E-007    0.000000000000000E+000
  6.400000000000000E-007    0.000000000000000E+000
  6.600000000000000E-007    0.000000000000000E+000
  6.800000000000001E-007    0.000000000000000E+000
  7.000000000000001E-007    0.000000000000000E+000
  7.200000000000003E-007    0.000000000000000E+000
  7.400000000000001E-007    0.000000000000000E+000
  7.599999999999999E-007    0.000000000000000E+000
  7.800000000000002E-007    0.000000000000000E+000
  8.000000000000000E-007    0.000000000000000E+000
  8.200000000000002E-007    0.000000000000000E+000
  8.400000000000000E-007    0.000000000000000E+000
  8.600000000000002E-007    0.000000000000000E+000
  8.800000000000000E-007    0.000000000000000E+000
  9.000000000000003E-007    0.000000000000000E+000
  9.200000000000001E-007    0.000000000000000E+000
  9.399999999999999E-007    0.000000000000000E+000
  9.600000000000001E-007    0.000000000000000E+000
  9.799999999999999E-007    0.000000000000000E+000
  1.000000000000000E-006    0.000000000000000E+000
  1.020000000000000E-006    0.000000000000000E+000
  1.040000000000000E-006    0.000000000000000E+000
  1.060000000000000E-006    0.000000000000000E+000
  1.080000000000000E-006    0.000000000000000E+000
  1.100000000000000E-006    0.000000000000000E+000
  1.120000000000000E-006    0.000000000000000E+000
  1.140000000000000E-006    0.000000000000000E+000
  1.160000000000000E-006    0.000000000000000E+000
  1.180000000000000E-006    0.000000000000000E+000
  1.200000000000000E-006    0.000000000000000E+000
  1.220000000000000E-006    0.000000000000000E+000
  1.240000000000000E-006    0.000000000000000E+000
  1.260000000000000E-006    0.000000000000000E+000
  1.280000000000000E-006    0.000000000000000E+000
  1.300000000000000E-006    0.000000000000000E+000
  1.320000000000000E-006    0.000000000000000E+000
  1.340000000000000E-006    0.000000000000000E+000
  1.360000000000000E-006    0.000000000000000E+000
  1.380000000000000E-006    0.000000000000000E+000
  1.400000000000000E-006    0.000000000000000E+000
  1.420000000000000E-006    0.000000000000000E+000
  1.440000000000000E-006    0.000000000000000E+000
  1.460000000000000E-006    0.000000000000000E+000
  1.480000000000000E-006    0.000000000000000E+000
  1.500000000000000E-006    0.000000000000000E+000
  1.520000000000000E-006    0.000000000000000E+000
  1.540000000000000E-006    0.000000000000000E+000
  1.560000000000000E-006    0.000000000000000E+000
  1.580000000000000E-006    0.000000000000000E+000
  1.600000000000000E-006    8.957180964471963E-038
  1.620000000000000E-006    2.150332686116621E-038
  1.640000000000000E-006   -1.395528232955181E-037
  1.660000000000000E-006    5.451632103048679E-037
  1.680000000000000E-006   -1.567795434195243E-036
  1.700000000000000E-006    5.699805385380268E-037
  1.720000000000000E-006    2.812836253571070E-036
  1.740000000000000E-006   -6.027097151618444E-036
  1.760000000000000E-006    6.346803363264684E-036
  1.780000000000000E-006    7.060666619034615E-036
  1.800000000000000E-006   -2.737634390682727E-035
  1.820000000000000E-006    2.555349449535101E-035
  1.840000000000000E-006    2.480820333180982E-035
  1.860000000000000E-006   -9.745792294995892E-035
  1.880000000000000E-006    1.004916686164725E-034
  1.900000000000000E-006    8.178496849956791E-035
  1.920000000000000E-006   -3.632222819221448E-034
  1.940000000000000E-006    3.310260745201083E-034
  1.960000000000000E-006    3.020523247718589E-034
  1.980000000000000E-006   -1.113222307701350E-033
  2.000000000000000E-006    1.139826120510859E-033
  2.020000000000000E-006    6.877704766150235E-034
  2.040000000000000E-006   -3.938161716261661E-033
  2.060000000000000E-006    4.035298358463794E-033
  2.080000000000000E-006    3.248326628582565E-033
  2.100000000000000E-006   -1.180388597240787E-032
  2.120000000000000E-006    1.035154105557341E-032
  2.140000000000000E-006    5.913234296972780E-033
  2.160000000000000E-006   -3.443361991231891E-032
  2.180000000000000E-006    4.119465810347784E-032
  2.200000000000000E-006    2.635394636809683E-032
  2.220000000000000E-006   -1.114459943338414E-031
  2.240000000000000E-006    8.075786872431988E-032
  2.260000000000000E-006    5.416985770635037E-032
  2.280000000000000E-006   -2.413347510578783E-031
  2.300000000000000E-006    3.493369699317061E-031
  2.320000000000000E-006    1.337675661150468E-031
  2.340000000000000E-006   -9.314379200572503E-031
  2.360000000000000E-006    5.970969286698820E-031
  2.380000000000000E-006    5.562798232989921E-031
  2.400000000000000E-006   -1.374149144637398E-030
  2.420000000000000E-006    2.282263938243484E-030
  2.440000000000000E-006    9.182866680782169E-032
  2.460000000000000E-006   -6.367479467808688E-030
  2.480000000000000E-006    4.384007985232879E-030
  2.500000000000000E-006    4.343350025785868E-030
  2.520000000000000E-006   -6.603105917398219E-030
  2.540000000000000E-006    1.306877471627863E-029
  2.560000000000000E-006   -4.588902205341317E-030
  2.580000000000000E-006   -3.860986851596270E-029
  2.600000000000000E-006    2.537346562049899E-029
  2.620000000000000E-006    2.897585174345314E-029
  2.640000000000001E-006   -1.254681786926240E-029
  2.660000000000000E-006    7.269433281359524E-029
  2.680000000000000E-006   -7.496415243763485E-029
  2.700000000000000E-006   -2.342467033118483E-028
  2.720000000000000E-006    1.323567795295368E-028
  2.740000000000000E-006    2.112241789474866E-028
  2.760000000000000E-006    1.309498456850200E-028
  2.780000000000000E-006    3.569528879450738E-028
  2.800000000000000E-006   -7.130542299274562E-028
  2.820000000000001E-006   -1.331311381814295E-027
  2.840000000000000E-006    5.294807580337315E-028
  2.860000000000000E-006    1.189181109589447E-027
  2.880000000000000E-006    1.854282446026850E-027
  2.900000000000000E-006    2.385994641434232E-027
  2.920000000000000E-006   -4.288159064656072E-027
  2.940000000000000E-006   -7.913935626327303E-027
  2.960000000000000E-006   -1.365439576464233E-027
  2.980000000000000E-006    4.102940864834465E-027
  3.000000000000000E-006    1.752552634108013E-026
  3.020000000000000E-006    2.210624214207404E-026
  3.040000000000000E-006   -1.697019099440536E-026
  3.060000000000000E-006   -4.836394190511780E-026
  3.080000000000000E-006   -4.306333871348057E-026
  3.100000000000000E-006   -8.295275281802234E-027
  3.120000000000000E-006    1.145268554535209E-025
  3.140000000000000E-006    1.822539372590715E-025
  3.160000000000000E-006    1.458508506616995E-026
  3.180000000000000E-006   -2.122549776087809E-025
  3.200000000000000E-006   -4.128106039153976E-025
  3.220000000000000E-006   -3.629434868614550E-025
  3.240000000000000E-006    4.014427160896825E-025
  3.260000000000001E-006    1.161773836753838E-024
  3.280000000000000E-006    9.729759693783214E-025
  3.300000000000000E-006   -1.032220713246274E-025
  3.320000000000000E-006   -2.307295437942485E-024
  3.340000000000000E-006   -3.755352561657186E-024
  3.360000000000000E-006   -1.027370060484561E-024
  3.380000000000000E-006    4.226205837384624E-024
  3.400000000000000E-006    8.520933042867136E-024
  3.420000000000000E-006    7.981880494515146E-024
  3.440000000000001E-006   -4.231192429436605E-024
  3.460000000000000E-006   -2.109977109622922E-023
  3.480000000000000E-006   -2.358687435575445E-023
  3.500000000000000E-006   -5.224384072428744E-024
  3.520000000000000E-006    3.327927482113587E-023
  3.540000000000000E-006    6.789218322776215E-023
  3.560000000000000E-006    4.336001971649411E-023
  3.580000000000000E-006   -4.322801698874531E-023
  3.600000000000000E-006   -1.312651415837624E-022
  3.620000000000000E-006   -1.499017730597276E-022
  3.640000000000000E-006   -1.180569318699673E-023
  3.660000000000000E-006    2.351746497913274E-022
  3.680000000000000E-006    3.384541359594290E-022
  3.700000000000001E-006    1.488994951737813E-022
  3.720000000000000E-006   -2.666121625652426E-022
  3.740000000000000E-006   -6.143858991098921E-022
  3.760000000000000E-006   -3.564684975403829E-022
  3.780000000000000E-006    4.800499307410573E-022
  3.800000000000000E-006    9.113980189571998E-022
  3.820000000000001E-006    8.133417535241466E-023
  3.840000000000001E-006   -1.850448564942927E-021
  3.860000000000000E-006   -2.773953723085772E-021
  3.880000000000000E-006    9.106159989235812E-022
  3.900000000000000E-006    9.080342423792622E-021
  3.920000000000000E-006    1.390825722333258E-020
  3.940000000000000E-006    3.444917902443231E-021
  3.959999999999999E-006   -2.796200287922055E-020
  3.980000000000001E-006   -6.246169488258270E-020
  4.000000000000001E-006   -5.331752087229110E-020
  4.020000000000000E-006    4.145692352198600E-020
  4.040000000000000E-006    1.996764406398335E-019
  4.060000000000000E-006    2.922884195390505E-019
  4.080000000000000E-006    1.205603029363006E-019
  4.100000000000000E-006   -4.060237546240529E-019
  4.120000000000000E-006   -1.034673968104268E-018
  4.139999999999999E-006   -1.116412057436647E-018
  4.160000000000001E-006    4.760667380930180E-020
  4.180000000000001E-006    2.433407504393073E-018
  4.200000000000000E-006    4.549004770615812E-018
  4.220000000000000E-006    3.664295611140836E-018
  4.240000000000000E-006   -2.326788750994123E-018
  4.260000000000000E-006   -1.192254348331045E-017
  4.280000000000000E-006   -1.805597860532055E-017
  4.299999999999999E-006   -1.042184983367440E-017
  4.320000000000001E-006    1.633668839007840E-017
  4.340000000000001E-006    5.204130990056355E-017
  4.360000000000001E-006    6.696500609259801E-017
  4.380000000000000E-006    2.486900599570083E-017
  4.400000000000000E-006   -8.462149062138269E-017
  4.420000000000000E-006   -2.107417829396858E-016
  4.440000000000000E-006   -2.375060489492634E-016
  4.460000000000000E-006   -4.323957865781907E-017
  4.479999999999999E-006    3.793003736886214E-016
  4.500000000000001E-006    8.104422382723922E-016
  4.520000000000001E-006    8.201303627629898E-016
  4.540000000000001E-006    1.097214842076862E-017
  4.560000000000000E-006   -1.554421918810665E-015
  4.580000000000000E-006   -3.003921005806289E-015
  4.600000000000000E-006   -2.798693195378442E-015
  4.620000000000000E-006    3.441683567404186E-016
  4.640000000000000E-006    5.975079952396212E-015
  4.659999999999999E-006    1.083443548481438E-014
  4.680000000000001E-006    9.554454951294112E-015
  4.700000000000001E-006   -2.017912311686219E-015
  4.720000000000001E-006   -2.182532478848954E-014
  4.740000000000000E-006   -3.824759878885583E-014
  4.760000000000000E-006   -3.291527808928941E-014
  4.780000000000000E-006    7.813255416560239E-015
  4.800000000000000E-006    7.621565416115796E-014
  4.820000000000000E-006    1.325265597864354E-013
  4.839999999999999E-006    1.148656439451615E-013
  4.860000000000001E-006   -2.255204629281470E-014
  4.880000000000001E-006   -2.547360146620606E-013
  4.900000000000001E-006   -4.507971447280342E-013
  4.920000000000000E-006   -4.053888407310660E-013
  4.940000000000000E-006    3.853232621243662E-014
  4.960000000000000E-006    8.122154615981412E-013
  4.980000000000000E-006    1.501953875653146E-012
  5.000000000000000E-006    1.437568336611739E-012
  5.019999999999999E-006    7.230584441744130E-014
  5.040000000000001E-006   -2.449335489218314E-012
  5.060000000000001E-006   -4.878559222797568E-012
  5.080000000000000E-006   -5.072863216329881E-012
  5.100000000000000E-006   -1.122448551047343E-012
  5.120000000000000E-006    6.867157724425584E-012
  5.140000000000000E-006    1.533507796604834E-011
  5.160000000000000E-006    1.761510798681781E-011
  5.180000000000000E-006    7.104158937092589E-012
  5.199999999999999E-006   -1.728318759676676E-011
  5.220000000000001E-006   -4.614754128297077E-011
  5.240000000000001E-006   -5.948845997450170E-011
  5.260000000000000E-006   -3.501020419285311E-011
  5.280000000000000E-006    3.576587059732795E-011
  5.300000000000000E-006    1.308056420083475E-010
  5.320000000000000E-006    1.929979517768354E-010
  5.340000000000000E-006    1.497614722290371E-010
  5.360000000000000E-006   -4.159874510903416E-011
  5.380000000000001E-006   -3.399408394088323E-010
  5.400000000000001E-006   -5.930940060112680E-010
  5.420000000000001E-006   -5.762656407339068E-010
  5.440000000000000E-006   -1.114133219602457E-010
  5.460000000000000E-006    7.673499171665090E-010
  5.480000000000000E-006    1.694420252306456E-009
  5.500000000000000E-006    2.017828512316322E-009
  5.520000000000000E-006    1.083812504472942E-009
  5.539999999999999E-006   -1.289441625554699E-009
  5.560000000000001E-006   -4.367209364940504E-009
  5.580000000000001E-006   -6.418803422752987E-009
  5.600000000000001E-006   -5.292285865209578E-009
  5.620000000000000E-006    3.457229403279434E-010
  5.640000000000000E-006    9.549649920901268E-009
  5.660000000000000E-006    1.828327169283130E-008
  5.680000000000000E-006    2.021319358458288E-008
  5.700000000000000E-006    9.557226565103623E-009
  5.719999999999999E-006   -1.466744934855225E-008
  5.740000000000001E-006   -4.497008503446675E-008
  5.760000000000001E-006   -6.505069400367287E-008
  5.780000000000001E-006   -5.502222501902584E-008
  5.800000000000000E-006   -2.136063950529723E-009
  5.820000000000000E-006    8.658041940131502E-008
  5.840000000000000E-006    1.766420192726409E-007
  5.860000000000000E-006    2.111129706073175E-007
  5.880000000000000E-006    1.326552555037965E-007
  5.899999999999999E-006   -8.093655682654368E-008
  5.920000000000001E-006   -3.814597194992956E-007
  5.940000000000001E-006   -6.367469568188094E-007
  5.960000000000001E-006   -6.597579833166477E-007
  5.980000000000000E-006   -2.882237431294902E-007
  6.000000000000000E-006    5.021949353484371E-007
  6.020000000000000E-006    1.497712730342954E-006
  6.040000000000000E-006    2.225614479493255E-006
  6.060000000000000E-006    2.073175311446636E-006
  6.079999999999999E-006    5.628827455402697E-007
  6.100000000000001E-006   -2.279168147675568E-006
  6.120000000000001E-006   -5.617249025691853E-006
  6.140000000000001E-006   -7.779346253012935E-006
  6.160000000000000E-006   -6.703364046997421E-006
  6.180000000000000E-006   -8.999337963356637E-007
  6.200000000000000E-006    9.295838708414153E-006
  6.220000000000000E-006    2.072763098450178E-005
  6.240000000000000E-006    2.742736193176176E-005
  6.260000000000001E-006    2.228649167201174E-005
  6.280000000000001E-006    4.997823669132689E-007
  6.300000000000001E-006   -3.608126420567137E-005
  6.320000000000000E-006   -7.565516343333836E-005
  6.340000000000000E-006   -9.688112638911709E-005
  6.360000000000000E-006   -7.518294666803856E-005
  6.380000000000000E-006    4.919554822600092E-006
  6.400000000000000E-006    1.348018042734188E-004
  6.420000000000000E-006    2.711535099967722E-004
  6.439999999999999E-006    3.388947712016838E-004
  6.459999999999999E-006    2.545087350163071E-004
  6.480000000000001E-006   -3.089456712582802E-005
  6.500000000000000E-006   -4.814471977793383E-004
  6.520000000000000E-006   -9.439864060486750E-004
  6.540000000000000E-006   -1.162775156933550E-003
  6.560000000000000E-006   -8.619248473754035E-004
  6.580000000000000E-006    1.105987811021428E-004
  6.599999999999999E-006    1.622313633444806E-003
  6.619999999999999E-006    3.159842009176213E-003
  6.639999999999999E-006    3.888596576511599E-003
  6.660000000000001E-006    2.925577125869659E-003
  6.680000000000000E-006   -2.039037890786660E-004
  6.700000000000000E-006   -5.072910223782675E-003
  6.720000000000000E-006   -1.007191946160906E-002
  6.740000000000000E-006   -1.260943693011572E-002
  6.760000000000000E-006   -9.948013180735911E-003
  6.779999999999999E-006   -5.702203464826444E-004
  6.799999999999999E-006    1.436750025051524E-002
  6.819999999999999E-006    3.020921472796768E-002
  6.840000000000001E-006    3.935313222027678E-002
  6.860000000000000E-006    3.359624532293009E-002
  6.880000000000000E-006    7.964651484036619E-003
  6.900000000000000E-006   -3.517698063122304E-002
  6.920000000000000E-006   -8.365453819824643E-002
  6.940000000000000E-006   -0.116647296329210     
  6.959999999999999E-006   -0.110599241136517     
  6.979999999999999E-006   -4.917918764313176E-002
  6.999999999999999E-006    6.566463491135953E-002
  7.020000000000001E-006    0.206294289896045     
  7.040000000000000E-006    0.320626617722646     
  7.060000000000000E-006    0.345065019206170     
  7.080000000000000E-006    0.228007038042856     
  7.100000000000000E-006   -4.239929439844056E-002
  7.120000000000000E-006   -0.416848927295332     
  7.139999999999999E-006   -0.781485655770010     
  7.159999999999999E-006   -0.980506530829343     
  7.179999999999999E-006   -0.864396582027910     
  7.200000000000001E-006   -0.352584966445810     
  7.220000000000000E-006    0.510115661585917     
  7.240000000000000E-006     1.52754973539451     
  7.260000000000000E-006     2.37582537181823     
  7.280000000000000E-006     2.68151659745995     
  7.300000000000000E-006     2.14010169271139     
  7.319999999999999E-006    0.642256413549160     
  7.339999999999999E-006    -1.63399711442086     
  7.359999999999999E-006    -4.20336049916559     
  7.380000000000000E-006    -6.34570610105305     
  7.400000000000000E-006    -7.26422138470174     
  7.420000000000000E-006    -6.29561544634832     
  7.440000000000000E-006    -3.12087345268453     
  7.460000000000000E-006     2.07759171202907     
  7.480000000000000E-006     8.55398660207066     
  7.499999999999999E-006     15.0521852608539     
  7.519999999999999E-006     19.9706328414451     
  7.540000000000001E-006     21.6190052280666     
  7.560000000000000E-006     18.5366766211008     
  7.580000000000000E-006     9.83598827028581     
  7.600000000000000E-006    -4.47759253096129     
  7.620000000000000E-006    -23.2735369583755     
  7.640000000000000E-006    -44.2354346827145     
  7.660000000000000E-006    -64.0550950459823     
  7.679999999999999E-006    -78.9296763688372     
  7.699999999999999E-006    -85.3305126057926     
  7.720000000000001E-006    -80.8912434730114     
  7.740000000000000E-006    -65.1430949499975     
  7.760000000000000E-006    -39.7617547734343     
  7.780000000000000E-006    -8.02645822720277     
  7.800000000000000E-006     26.6434829273869     
  7.820000000000000E-006     62.9498649816266     
  7.839999999999999E-006     104.380317949949     
  7.859999999999999E-006     161.726350095832     
  7.879999999999999E-006     254.948747029841     
  7.900000000000001E-006     414.189779710257     
  7.920000000000000E-006     680.174485387264     
  7.940000000000000E-006     1104.70188939430     
  7.960000000000000E-006     1752.17526039284     
  7.980000000000000E-006     2702.89459428271     
  8.000000000000000E-006     4058.22920082513     
  8.019999999999999E-006     5946.86692934837     
  8.039999999999999E-006     8530.20356706024     
  8.059999999999999E-006     12004.4311326903     
  8.080000000000001E-006     16596.7623984875     
  8.100000000000000E-006     22553.7439964069     
  8.120000000000000E-006     30120.8638154519     
  8.140000000000000E-006     39513.9339330163     
  8.160000000000000E-006     50883.5037667620     
  8.180000000000000E-006     64274.1317403159     
  8.199999999999999E-006     79580.2352283406     
  8.219999999999999E-006     96500.4834146369     
  8.239999999999999E-006     114491.554812363     
  8.260000000000001E-006     132725.055215762     
  8.280000000000000E-006     150051.523418362     
  8.300000000000000E-006     164980.078894566     
  8.320000000000000E-006     175681.838954705     
  8.340000000000000E-006     180030.012984725     
  8.360000000000000E-006     175685.229656769     
  8.379999999999999E-006     160232.281264979     
  8.399999999999999E-006     131368.221996443     
  8.419999999999999E-006     87134.0756675577     
  8.440000000000001E-006     26176.4246394084     
  8.460000000000000E-006    -51983.1097746480     
  8.480000000000000E-006    -146696.166181348     
  8.500000000000000E-006    -255981.809122772     
  8.520000000000000E-006    -376393.675889124     
  8.540000000000000E-006    -502985.771757645     
  8.559999999999999E-006    -629400.524719736     
  8.579999999999999E-006    -748090.501079498     
  8.600000000000001E-006    -850679.059809002     
  8.620000000000000E-006    -928452.907154166     
  8.640000000000000E-006    -972963.162919911     
  8.660000000000000E-006    -976693.356483367     
  8.680000000000000E-006    -933746.307919756     
  8.700000000000000E-006    -840487.995282023     
  8.720000000000000E-006    -696081.713119643     
  8.739999999999999E-006    -502862.380144614     
  8.759999999999999E-006    -266494.245398346     
  8.780000000000001E-006     4117.62246904173     
  8.800000000000000E-006     297167.623566743     
  8.820000000000000E-006     598540.445178455     
  8.840000000000000E-006     892626.612123009     
  8.860000000000000E-006     1163303.06839685     
  8.880000000000000E-006     1395023.16517300     
  8.899999999999999E-006     1573923.09262498     
  8.919999999999999E-006     1688852.64603160     
  8.939999999999999E-006     1732227.67643816     
  8.960000000000001E-006     1700627.80315877     
  8.980000000000000E-006     1595077.45724526     
  9.000000000000000E-006     1420972.58602110     
  9.020000000000000E-006     1187667.41363233     
  9.040000000000000E-006     907776.493418498     
  9.060000000000000E-006     596266.635323116     
  9.079999999999999E-006     269422.235512517     
  9.099999999999999E-006    -56234.7563655190     
  9.119999999999999E-006    -364975.416823287     
  9.140000000000001E-006    -642776.564671206     
  9.160000000000000E-006    -878084.691629694     
  9.180000000000000E-006    -1062388.95037630     
  9.200000000000000E-006    -1190553.63550115     
  9.220000000000000E-006    -1260906.56132438     
  9.240000000000000E-006    -1275081.67160714     
  9.259999999999999E-006    -1237625.43069968     
  9.279999999999999E-006    -1155426.69971836     
  9.299999999999999E-006    -1037026.28354469     
  9.320000000000001E-006    -891889.217675762     
  9.340000000000000E-006    -729736.816995671     
  9.360000000000000E-006    -559955.558198638     
  9.380000000000000E-006    -391115.675378084     
  9.400000000000000E-006    -230616.193812619     
  9.420000000000000E-006    -84426.4010174864     
  9.439999999999999E-006     43079.9960248717     
  9.459999999999999E-006     149162.804342890     
  9.479999999999999E-006     232646.044806978     
  9.500000000000001E-006     293747.732934764     
  9.520000000000000E-006     333808.733095720     
  9.540000000000000E-006     354975.380781351     
  9.560000000000000E-006     359871.152110452     
  9.580000000000000E-006     351303.278193841     
  9.600000000000000E-006     332069.371801602     
  9.619999999999999E-006     304841.683209443     
  9.639999999999999E-006     272099.284518494     
  9.660000000000001E-006     236119.610116426     
  9.680000000000000E-006     198972.242925066     
  9.700000000000000E-006     162472.045186017     
  9.720000000000000E-006     128129.537058200     
  9.740000000000000E-006     97107.4949303051     
  9.760000000000000E-006     70200.8725401151     
  9.780000000000000E-006     47856.3136368906     
  9.799999999999999E-006     30188.7448310873     
  9.819999999999999E-006     16998.4602713151     
  9.840000000000001E-006     7812.86249398244     
  9.860000000000000E-006     1914.40237887595     
  9.880000000000000E-006    -1621.13175257907     
  9.900000000000000E-006    -3825.07017926394     
  9.920000000000000E-006    -5709.08595163812     
  9.940000000000000E-006    -8124.02687340864     
  9.960000000000000E-006    -11605.7041777755     
  9.979999999999999E-006    -16258.7297182615     
  9.999999999999999E-006    -21697.5788436024     
  1.002000000000000E-005    -27071.1670582615     
  1.004000000000000E-005    -31215.6780656826     
  1.006000000000000E-005    -32900.4038318831     
  1.008000000000000E-005    -31125.7481731572     
  1.010000000000000E-005    -25441.7319167942     
  1.012000000000000E-005    -16174.4763194713     
  1.014000000000000E-005    -4476.67169873304     
  1.016000000000000E-005     7803.63168046325     
  1.018000000000000E-005     18440.5988113388     
  1.020000000000000E-005     25276.8207273037     
  1.022000000000000E-005     26675.3343794207     
  1.024000000000000E-005     21881.7436997083     
  1.026000000000000E-005     11220.2562061807     
  1.028000000000000E-005    -3903.97039745762     
  1.030000000000000E-005    -21160.0803000864     
  1.032000000000000E-005    -37587.8943303282     
  1.034000000000000E-005    -50015.7861508659     
  1.036000000000000E-005    -55547.8526776247     
  1.038000000000000E-005    -52098.2742834774     
  1.040000000000000E-005    -38925.9264099199     
  1.042000000000000E-005    -17030.3035729595     
  1.044000000000000E-005     10745.1812119506     
  1.046000000000000E-005     39999.2079505991     
  1.048000000000000E-005     65456.8844270619     
  1.050000000000000E-005     81942.9418077758     
  1.052000000000000E-005     85437.7748367900     
  1.054000000000000E-005     73966.7284105451     