 -1.200000000000000E-006    0.000000000000000E+000
 -1.180000000000000E-006    0.000000000000000E+000
 -1.160000000000000E-006    9.293958535594337E-018
 -1.140000000000000E-006    3.857473065089104E-003
 -1.120000000000000E-006   -4.647934061612279E-002
 -1.100000000000000E-006    0.267372195669920     
 -1.080000000000000E-006   -0.770011249047711     
 -1.060000000000000E-006    0.723257842926234     
 -1.040000000000000E-006     1.98555047938986     
 -1.020000000000000E-006    -5.83916488503778     
 -1.000000000000000E-006    0.625397601021153     
 -9.799999999999999E-007     14.6956767602113     
 -9.599999999999999E-007    -9.86064582586776     
 -9.399999999999999E-007    -22.7403046390287     
 -9.199999999999999E-007     16.9640246440128     
 -9.000000000000000E-007     26.5671159183094     
 -8.799999999999999E-007    -3.07348761704902     
 -8.599999999999999E-007    -21.9280843375637     
 -8.400000000000000E-007    -32.4465869797222     
 -8.200000000000000E-007    -3.00950511286407     
 -8.000000000000000E-007     44.2135880080061     
 -7.799999999999999E-007     63.8760903686057     
 -7.599999999999999E-007     61.5375658236168     
 -7.399999999999999E-007    -104.448463167266     
 -7.199999999999999E-007    -326.806775844081     
 -7.000000000000000E-007    -84.6391242356776     
 -6.799999999999999E-007     491.636723424753     
 -6.599999999999999E-007     595.352986787717     
 -6.399999999999999E-007    -58.7577304379192     
 -6.199999999999999E-007    -1089.65793941915     
 -6.000000000000000E-007    -1723.15427678182     
 -5.800000000000000E-007    -991.470058931108     
 -5.599999999999999E-007     1595.90844722573     
 -5.399999999999999E-007     5619.90945465139     
 -5.199999999999999E-007     9334.20870051031     
 -5.000000000000000E-007     10606.6966297196     
 -4.800000000000000E-007     10109.9634195600     
 -4.599999999999999E-007     11363.1229348351     
 -4.399999999999999E-007     16757.8863417668     
 -4.199999999999999E-007     26354.8200363769     
 -4.000000000000000E-007     39392.6697453960     
 -3.800000000000000E-007     54826.7253149802     
 -3.599999999999999E-007     72042.3139767348     
 -3.399999999999999E-007     92094.3443145328     
 -3.199999999999999E-007     118533.103375455     
 -2.999999999999999E-007     155811.721443542     
 -2.800000000000000E-007     204443.579440075     
 -2.599999999999999E-007     260675.540313390     
 -2.399999999999998E-007     322799.707532308     
 -2.200000000000000E-007     392595.748485266     
 -2.000000000000000E-007     470758.066750825     
 -1.800000000000000E-007     555655.912834951     
 -1.600000000000000E-007     644668.100437046     
 -1.399999999999999E-007     733762.824359848     
 -1.199999999999999E-007     815737.608803927     
 -9.999999999999989E-008     879771.686666550     
 -7.999999999999987E-008     914930.646167600     
 -5.999999999999985E-008     911559.587806714     
 -3.999999999999983E-008     856375.523647298     
 -2.000000000000002E-008     732564.122434084     
  0.000000000000000E+000     526967.980514971     
  2.000000000000002E-008     231543.053860685     
  4.000000000000004E-008    -160226.009714121     
  6.000000000000006E-008    -653304.869009226     
  8.000000000000008E-008    -1247546.50650574     
  1.000000000000001E-007    -1933265.13668749     
  1.200000000000001E-007    -2689326.68645696     
  1.400000000000001E-007    -3483212.13562477     
  1.600000000000002E-007    -4269438.89662510     
  1.800000000000002E-007    -4992247.37449016     
  2.000000000000000E-007    -5593188.11436236     
  2.200000000000000E-007    -6012149.51800928     
  2.400000000000000E-007    -6185327.71194922     
  2.600000000000001E-007    -6050909.98438909     
  2.800000000000001E-007    -5557629.05494237     
  3.000000000000001E-007    -4671268.55596263     
  3.200000000000001E-007    -3381128.01403728     
  3.400000000000001E-007    -1705771.89553384     
  3.600000000000002E-007     303302.080577102     
  3.800000000000002E-007     2563574.95237346     
  4.000000000000000E-007     4967402.10575031     
  4.200000000000000E-007     7382346.89143704     
  4.400000000000000E-007     9652211.23746895     
  4.600000000000000E-007     11611522.7383398     
  4.800000000000001E-007     13103100.2523938     
  5.000000000000001E-007     13987591.6681733     
  5.200000000000001E-007     14152825.3805874     
  5.400000000000001E-007     13527515.5568107     
  5.600000000000001E-007     12093548.2712773     
  5.800000000000002E-007     9890351.59990220     
  6.000000000000002E-007     7012101.90618567     
  6.200000000000000E-007     3606770.19213611     
  6.400000000000000E-007    -126244.995917989     
  6.600000000000000E-007    -3952699.64463636     
  6.800000000000001E-007    -7626062.90743735     
  7.000000000000001E-007    -10902317.5179286     
  7.200000000000003E-007    -13554522.2999218     
  7.400000000000001E-007    -15393509.6417020     
  7.599999999999999E-007    -16286782.2853238     
  7.800000000000002E-007    -16168892.2220498     
  8.000000000000000E-007    -15044134.9096837     
  8.200000000000002E-007    -12987735.9637701     
  8.400000000000000E-007    -10145267.5493648     
  8.600000000000002E-007    -6721090.79115127     
  8.800000000000000E-007    -2958986.00318429     
  9.000000000000003E-007     874605.678456464     
  9.200000000000001E-007     4509328.38150222     
  9.399999999999999E-007     7695051.71900132     
  9.600000000000001E-007     10221608.3717212     
  9.799999999999999E-007     11930579.6279186     
  1.000000000000000E-006     12724000.7777034     
  1.020000000000000E-006     12572107.6538607     
  1.040000000000000E-006     11517288.4109052     
  1.060000000000000E-006     9668564.02210978     
  1.080000000000000E-006     7188381.48183644     
  1.100000000000000E-006     4279407.21784002     
  1.120000000000000E-006     1169201.21298652     
  1.140000000000000E-006    -1909879.12617013     
  1.160000000000000E-006    -4737688.67245083     
  1.180000000000000E-006    -7118500.73971013     
  1.200000000000000E-006    -8894306.21472248     
  1.220000000000000E-006    -9957587.56075274     
  1.240000000000000E-006    -10258317.3876365     
  1.260000000000000E-006    -9803721.34465454     
  1.280000000000000E-006    -8653090.26672072     
  1.300000000000000E-006    -6911494.16300010     
  1.320000000000000E-006    -4721299.48049918     
  1.340000000000000E-006    -2249695.81342926     
  1.360000000000000E-006     323262.497898097     
  1.380000000000000E-006     2815629.21353333     
  1.400000000000000E-006     5057822.49439357     
  1.420000000000000E-006     6906131.69880802     
  1.440000000000000E-006     8249788.49455685     
  1.460000000000000E-006     9014632.17212383     
  1.480000000000000E-006     9166963.29277090     
  1.500000000000000E-006     8715761.47598763     
  1.520000000000000E-006     7710216.50358209     
  1.540000000000000E-006     6233047.35564839     
  1.560000000000000E-006     4393992.86080669     
  1.580000000000000E-006     2323681.97442856     
  1.600000000000000E-006     163463.432994729     
  1.620000000000000E-006    -1946496.33599565     
  1.640000000000000E-006    -3875055.35660574     
  1.660000000000000E-006    -5505943.99985043     
  1.680000000000000E-006    -6745294.48207649     
  1.700000000000000E-006    -7528244.94986572     
  1.720000000000000E-006    -7821343.81932358     
  1.740000000000000E-006    -7621826.01240211     
  1.760000000000000E-006    -6956679.45724143     
  1.780000000000000E-006    -5881631.99172156     
  1.800000000000000E-006    -4476916.09893740     
  1.820000000000000E-006    -2839814.72490741     
  1.840000000000000E-006    -1077602.63751853     
  1.860000000000000E-006     698718.716954046     
  1.880000000000000E-006     2381436.51342542     
  1.900000000000000E-006     3872448.44929479     
  1.920000000000000E-006     5087771.27116303     
  1.940000000000000E-006     5961721.53487942     
  1.960000000000000E-006     6451102.14445787     
  1.980000000000000E-006     6537864.71627783     
  2.000000000000000E-006     6229153.33220967     
  2.020000000000000E-006     5555263.55498079     
  2.040000000000000E-006     4566961.93370017     
  2.060000000000000E-006     3332186.43653885     
  2.080000000000000E-006     1931260.52466455     
  2.100000000000000E-006     451662.674690790     
  2.120000000000000E-006    -1016492.79853300     
  2.140000000000000E-006    -2385527.00109765     
  2.160000000000000E-006    -3576343.55830155     
  2.180000000000000E-006    -4523693.35959894     
  2.200000000000000E-006    -5179157.87916132     
  2.220000000000000E-006    -5512436.40040461     
  2.240000000000000E-006    -5512223.28104865     
  2.260000000000000E-006    -5187063.02119965     
  2.280000000000000E-006    -4564890.81581526     
  2.300000000000000E-006    -3690500.84355038     
  2.320000000000000E-006    -2622163.86161733     
  2.340000000000000E-006    -1427959.19219271     
  2.360000000000000E-006    -181144.766660526     
  2.380000000000000E-006     1044835.83324709     
  2.400000000000000E-006     2180360.19712011     
  2.420000000000000E-006     3162498.81449790     
  2.440000000000000E-006     3937817.41831191     
  2.460000000000000E-006     4465867.50462657     
  2.480000000000000E-006     4722136.46724438     
  2.500000000000000E-006     4698805.82826762     
  2.520000000000000E-006     4404041.89631423     
  2.540000000000000E-006     3861281.99659539     
  2.560000000000000E-006     3107865.97686176     
  2.580000000000000E-006     2192173.11325761     
  2.600000000000000E-006     1170228.65204335     
  2.620000000000000E-006     102794.126983264     
  2.640000000000001E-006    -947625.920531241     
  2.660000000000000E-006    -1920648.09682572     
  2.680000000000000E-006    -2761978.53759102     
  2.700000000000000E-006    -3426189.14367330     
  2.720000000000000E-006    -3878706.04073078     
  2.740000000000000E-006    -4098027.44277892     
  2.760000000000000E-006    -4077268.09906742     
  2.780000000000000E-006    -3823575.05123951     
  2.800000000000000E-006    -3356307.62884377     
  2.820000000000001E-006    -2705949.39489263     
  2.840000000000000E-006    -1913387.00331745     
  2.860000000000000E-006    -1027600.05699282     
  2.880000000000000E-006    -101679.613890946     
  2.900000000000000E-006     810975.161063999     
  2.920000000000000E-006     1659315.40948351     
  2.940000000000000E-006     2396798.77095524     
  2.960000000000000E-006     2983709.35754656     
  2.980000000000000E-006     3389269.95739945     
  3.000000000000000E-006     3593198.79866175     
  3.020000000000000E-006     3587240.20152912     
  3.040000000000000E-006     3376249.25733029     
  3.060000000000000E-006     2977236.57037316     
  3.080000000000000E-006     2416745.54578318     
  3.100000000000000E-006     1728770.93227992     
  3.120000000000000E-006     953811.092219174     
  3.140000000000000E-006     137629.525968132     
  3.160000000000000E-006    -671526.739294903     
  3.180000000000000E-006    -1426756.03427485     
  3.200000000000000E-006    -2085777.81396026     
  3.220000000000000E-006    -2613258.16174198     
  3.240000000000000E-006    -2982524.12837626     
  3.260000000000001E-006    -3176107.47680698     
  3.280000000000000E-006    -3185700.88835308     
  3.300000000000000E-006    -3013200.55052033     
  3.320000000000000E-006    -2671889.35052690     
  3.340000000000000E-006    -2185385.01876063     
  3.360000000000000E-006    -1584686.66539731     
  3.380000000000000E-006    -905582.848044204     
  3.400000000000000E-006    -187350.655178037     
  3.420000000000000E-006     528705.511389564     
  3.440000000000001E-006     1202105.22018116     
  3.460000000000000E-006     1795882.56947490     
  3.480000000000000E-006     2278010.39204574     
  3.500000000000000E-006     2623165.32040010     
  3.520000000000000E-006     2814766.84226593     
  3.540000000000000E-006     2845203.55901044     
  3.560000000000000E-006     2714980.25421597     
  3.580000000000000E-006     2433000.56044742     
  3.600000000000000E-006     2017368.33437739     
  3.620000000000000E-006     1494445.10639815     
  3.640000000000000E-006     895950.810871674     
  3.660000000000000E-006     256477.519497272     
  3.680000000000000E-006    -387519.982654082     
  3.700000000000001E-006    -999355.593454438     
  3.720000000000000E-006    -1545034.30588930     
  3.740000000000000E-006    -1995167.55452702     
  3.760000000000000E-006    -2325774.04656773     
  3.780000000000000E-006    -2519818.98074070     
  3.800000000000000E-006    -2568693.01694163     
  3.820000000000001E-006    -2472098.79200769     
  3.840000000000001E-006    -2237340.55712620     
  3.860000000000000E-006    -1879339.31275473     
  3.880000000000000E-006    -1420591.90584190     
  3.900000000000000E-006    -889439.218797620     
  3.920000000000000E-006    -317120.809180046     
  3.940000000000000E-006     264089.930522843     
  3.959999999999999E-006     821735.733786799     
  3.980000000000001E-006     1324985.13199122     
  4.000000000000001E-006     1746722.52596084     
  4.020000000000000E-006     2064440.65198274     
  4.040000000000000E-006     2261197.66154061     
  4.060000000000000E-006     2327353.41166680     
  4.080000000000000E-006     2261417.02470119     
  4.100000000000000E-006     2069357.52933204     
  4.120000000000000E-006     1763634.09501405     
  4.139999999999999E-006     1362832.70474929     
  4.160000000000001E-006     891107.169415557     
  4.180000000000001E-006     376267.494537421     
  4.200000000000000E-006    -152409.273567279     
  4.220000000000000E-006    -665151.760341468     
  4.240000000000000E-006    -1132882.95703694     
  4.260000000000000E-006    -1529674.67172611     
  4.280000000000000E-006    -1834583.11620877     
  4.299999999999999E-006    -2032128.76563846     
  4.320000000000001E-006    -2112755.80926267     
  4.340000000000001E-006    -2073582.06242172     
  4.360000000000001E-006    -1918754.15903157     
  4.380000000000000E-006    -1658916.14924746     
  4.400000000000000E-006    -1310109.49772031     
  4.420000000000000E-006    -893038.727696476     
  4.440000000000000E-006    -432215.133724662     
  4.460000000000000E-006     45962.2412442748     
  4.479999999999999E-006     515031.830074301     
  4.500000000000001E-006     949383.726793491     
  4.520000000000001E-006     1325290.21431543     
  4.540000000000001E-006     1622338.97417646     
  4.560000000000000E-006     1824827.12964254     
  4.580000000000000E-006     1922827.25725634     
  4.600000000000000E-006     1912398.81463843     
  4.620000000000000E-006     1795406.47035826     
  4.640000000000000E-006     1579623.29794458     
  4.659999999999999E-006     1278323.37006685     
  4.680000000000001E-006     909136.147171532     
  4.700000000000001E-006     493100.718706139     
  4.720000000000001E-006     53871.8971174034     
  4.740000000000000E-006    -383408.631529890     
  4.760000000000000E-006    -793713.678993834     
  4.780000000000000E-006    -1154091.22931205     
  4.800000000000000E-006    -1445090.43413585     
  4.820000000000000E-006    -1651452.36478279     
  4.839999999999999E-006    -1762950.58651224     
  4.860000000000001E-006    -1774885.83449335     
  4.880000000000001E-006    -1687629.05866198     
  4.900000000000001E-006    -1506513.54649373     
  4.920000000000000E-006    -1242489.06046615     
  4.940000000000000E-006    -911992.439159176     
  4.960000000000000E-006    -535259.091686965     
  4.980000000000000E-006    -134036.091833097     
  5.000000000000000E-006     269755.041002629     
  5.019999999999999E-006     654247.603976753     
  5.040000000000001E-006     998262.909575800     
  5.060000000000001E-006     1282707.45187597     
  5.080000000000000E-006     1491793.46448404     
  5.100000000000000E-006     1614304.39488431     
  5.120000000000000E-006     1644896.96904392     
  5.140000000000000E-006     1584015.82245166     
  5.160000000000000E-006     1436458.15433650     
  5.180000000000000E-006     1210503.78591836     
  5.199999999999999E-006     918451.465893895     
  5.220000000000001E-006     577249.351141207     
  5.240000000000001E-006     207494.588365591     
  5.260000000000000E-006    -168945.532600654     
  5.280000000000000E-006    -530846.627481998     
  5.300000000000000E-006    -858611.715420125     
  5.320000000000000E-006    -1135047.46118331     
  5.340000000000000E-006    -1345796.32464228     
  5.360000000000000E-006    -1479513.48954405     
  5.380000000000001E-006    -1528732.95515047     
  5.400000000000001E-006    -1491269.04169262     
  5.420000000000001E-006    -1370751.95953707     
  5.440000000000000E-006    -1175641.27537719     
  5.460000000000000E-006    -917717.611685692     
  5.480000000000000E-006    -611498.739681958     
  5.500000000000000E-006    -274302.048521091     
  5.520000000000000E-006     74551.8894650497     
  5.539999999999999E-006     415441.532459245     
  5.560000000000001E-006     729751.333995812     
  5.580000000000001E-006     1000486.05446895     
  5.600000000000001E-006     1212933.49405454     
  5.620000000000000E-006     1355660.60262281     
  5.640000000000000E-006     1421325.91231118     
  5.660000000000000E-006     1406923.58371722     
  5.680000000000000E-006     1313866.59613221     
  5.700000000000000E-006     1148147.92380287     
  5.719999999999999E-006     919951.276157950     
  5.740000000000001E-006     642579.435312704     
  5.760000000000001E-006     331672.733153254     
  5.780000000000001E-006     4972.21242153685     
  5.800000000000000E-006    -318475.504471719     
  5.820000000000000E-006    -620165.744401918     
  5.840000000000000E-006    -883790.084517519     
  5.860000000000000E-006    -1095603.03594943     
  5.880000000000000E-006    -1244341.67772481     
  5.899999999999999E-006    -1321897.82205792     
  5.920000000000001E-006    -1324335.39211564     
  5.940000000000001E-006    -1252295.92571103     
  5.960000000000001E-006    -1110847.05576669     
  5.980000000000000E-006    -909124.240853722     
  6.000000000000000E-006    -659531.263162247     
  6.020000000000000E-006    -376480.923163857     
  6.040000000000000E-006    -75515.5355746007     
  6.060000000000000E-006     226862.051248038     
  6.079999999999999E-006     513714.111896046     
  6.100000000000001E-006     769057.377939980     
  6.120000000000001E-006     979071.303791046     
  6.140000000000001E-006     1132594.57614906     
  6.160000000000000E-006     1221573.04363134     
  6.180000000000000E-006     1241674.96251807     
  6.200000000000000E-006     1192567.50953657     
  6.220000000000000E-006     1077689.35970387     
  6.240000000000000E-006     903958.070891852     
  6.260000000000001E-006     681561.282968956     
  6.280000000000001E-006     423315.742196405     
  6.300000000000001E-006     143681.599656240     
  6.320000000000000E-006    -141741.347171195     
  6.340000000000000E-006    -416632.008398855     
  6.360000000000000E-006    -665277.615140035     
  6.380000000000000E-006    -874115.401188649     
  6.400000000000000E-006    -1032330.42348076     
  6.420000000000000E-006    -1131859.55782376     
  6.439999999999999E-006    -1167633.73563313     
  6.459999999999999E-006    -1138078.08815931     
  6.480000000000001E-006    -1045322.16055626     
  6.500000000000000E-006    -894983.308836251     
  6.520000000000000E-006    -696008.076183042     
  6.540000000000000E-006    -460321.760516839     
  6.560000000000000E-006    -201651.381385636     
  6.580000000000000E-006     65691.8021285114     
  6.599999999999999E-006     327183.516545997     
  6.619999999999999E-006     568399.477687756     
  6.639999999999999E-006     775916.663866361     
  6.660000000000001E-006     938296.828172607     
  6.680000000000000E-006     1046800.13709152     
  6.700000000000000E-006     1095889.47728624     
  6.720000000000000E-006     1083587.70663729     
  6.740000000000000E-006     1011478.01253146     
  6.760000000000000E-006     884104.466187901     
  6.779999999999999E-006     708450.423895806     
  6.799999999999999E-006     494166.204108524     
  6.819999999999999E-006     253645.787096323     
  6.840000000000001E-006     1140.82446159703     
  6.860000000000000E-006    -248513.916871498     
  6.880000000000000E-006    -481141.756454232     
  6.900000000000000E-006    -684318.378991668     
  6.920000000000000E-006    -847859.866953801     
  6.940000000000000E-006    -963681.332910372     
  6.959999999999999E-006    -1025602.81585358     
  6.979999999999999E-006    -1029769.60284560     
  6.999999999999999E-006    -975829.518377805     
  7.020000000000001E-006    -867686.928117003     
  7.040000000000000E-006    -712764.396532671     
  7.060000000000000E-006    -520590.154901498     
  7.080000000000000E-006    -301869.517354594     
  7.100000000000000E-006    -68162.7015926963     
  7.120000000000000E-006     168074.159589115     
  7.139999999999999E-006     393663.695519839     
  7.159999999999999E-006     595638.531335474     
  7.179999999999999E-006     762562.839335934     
  7.200000000000001E-006     885604.275994221     
  7.220000000000000E-006     958913.780252790     
  7.240000000000000E-006     979186.392473012     
  7.260000000000000E-006     945274.314387160     
  7.280000000000000E-006     858681.628948396     
  7.300000000000000E-006     724251.575289609     
  7.319999999999999E-006     550080.198240964     
  7.339999999999999E-006     346633.071178602     
  7.359999999999999E-006     125609.995942370     
  7.380000000000000E-006    -100756.380271000     
  7.400000000000000E-006    -319976.381584462     
  7.420000000000000E-006    -519853.611858392     
  7.440000000000000E-006    -689291.877281491     
  7.460000000000000E-006    -818909.569085332     
  7.480000000000000E-006    -901620.890325078     
  7.499999999999999E-006    -933174.902851537     
  7.519999999999999E-006    -912312.879401569     
  7.540000000000001E-006    -840668.800061882     
  7.560000000000000E-006    -722665.046723693     
  7.580000000000000E-006    -565383.439163041     
  7.600000000000000E-006    -378212.118994028     
  7.620000000000000E-006    -171961.227623741     
  7.640000000000000E-006     42134.3523440767     
  7.660000000000000E-006     252661.109982132     
  7.679999999999999E-006     447928.919706170     
  7.699999999999999E-006     616621.529426022     
  7.720000000000001E-006     749087.555736190     
  7.740000000000000E-006     838364.222700661     
  7.760000000000000E-006     880390.293102304     
  7.780000000000000E-006     873604.525374761     
  7.800000000000000E-006     818677.578086712     
  7.820000000000000E-006     718669.094320216     
  7.839999999999999E-006     579162.810458923     
  7.859999999999999E-006     408192.825700117     
  7.879999999999999E-006     215872.516470601     
  7.900000000000001E-006     13440.1283854911     
  7.920000000000000E-006    -187841.421553264     
  7.940000000000000E-006    -377195.151180300     
  7.960000000000000E-006    -544435.479583947     
  7.980000000000000E-006    -680286.559777642     
  8.000000000000000E-006    -777134.301651346     
  8.019999999999999E-006    -829870.813049980     
  8.039999999999999E-006    -836168.742787960     
  8.059999999999999E-006    -796220.594087343     
  8.080000000000001E-006    -712584.305108004     
  8.100000000000000E-006    -590120.165530627     
  8.120000000000000E-006    -435745.069780706     
  8.140000000000000E-006    -258175.882282564     
  8.160000000000000E-006    -67526.2294726716     
  8.180000000000000E-006     125488.189673507     
  8.199999999999999E-006     310338.477751673     
  8.219999999999999E-006     477080.254388251     
  8.239999999999999E-006     616523.160363113     
  8.260000000000001E-006     720656.568658021     
  8.280000000000000E-006     783580.708936346     
  8.300000000000000E-006     802248.949599423     
  8.320000000000000E-006     776292.913400065     
  8.340000000000000E-006     707507.225584705     
  8.360000000000000E-006     599716.056596020     
  8.379999999999999E-006     458814.574275299     
  8.399999999999999E-006     292726.354290171     
  8.419999999999999E-006     111170.644556307     
  8.440000000000001E-006    -75027.9163470596     
  8.460000000000000E-006    -255011.978696546     
  8.480000000000000E-006    -418879.243470127     
  8.500000000000000E-006    -558131.986117941     
  8.520000000000000E-006    -665572.309469672     
  8.540000000000000E-006    -735334.666866116     
  8.559999999999999E-006    -763467.567744070     
  8.579999999999999E-006    -748506.956259741     
  8.600000000000001E-006    -691678.052312034     
  8.620000000000000E-006    -596855.758144729     
  8.640000000000000E-006    -470119.989710151     
  8.660000000000000E-006    -318940.418106857     
  8.680000000000000E-006    -151586.893563336     
  8.700000000000000E-006     22990.0335795002     
  8.720000000000000E-006     195221.194200892     
  8.739999999999999E-006     355399.888196674     
  8.759999999999999E-006     494529.672238654     
  8.780000000000001E-006     605045.683721577     
  8.800000000000000E-006     681255.037075930     
  8.820000000000000E-006     719603.187382936     
  8.840000000000000E-006     718539.064472009     
  8.860000000000000E-006     678109.284970008     
  8.880000000000000E-006     600089.469537183     
  8.899999999999999E-006     488652.148190533     
  8.919999999999999E-006     350510.451595721     
  8.939999999999999E-006     194097.087530659     
  8.960000000000001E-006     28501.3089564163     
  8.980000000000000E-006    -137192.474782023     
  9.000000000000000E-006    -294280.059402497     
  9.020000000000000E-006    -434688.931237585     
  9.040000000000000E-006    -550929.751672448     
  9.060000000000000E-006    -636122.639481771     
  9.079999999999999E-006    -684900.925212284     
  9.099999999999999E-006    -694699.160333487     
  9.119999999999999E-006    -665906.205942435     
  9.140000000000001E-006    -600836.640275215     
  9.160000000000000E-006    -503086.707219048     
  9.180000000000000E-006    -377850.452319786     
  9.200000000000000E-006    -232122.020657927     
  9.220000000000000E-006    -74153.1804120055     
  9.240000000000000E-006     87173.8865341077     
  9.259999999999999E-006     242706.612579521     
  9.279999999999999E-006     383644.215336986     
  9.299999999999999E-006     502358.937460230     
  9.320000000000001E-006     592639.965072142     
  9.340000000000000E-006     649522.099777512     
  9.360000000000000E-006     669652.660283562     
  9.380000000000000E-006     652066.718249658     
  9.400000000000000E-006     598273.814253438     
  9.420000000000000E-006     511597.019213379     
  9.439999999999999E-006     396841.296109206     
  9.459999999999999E-006     260498.263037136     
  9.479999999999999E-006     110553.725415617     
  9.500000000000001E-006    -44318.3367214505     
  9.520000000000000E-006    -195444.744410278     
  9.540000000000000E-006    -334513.973898014     
  9.560000000000000E-006    -453968.550381785     
  9.580000000000000E-006    -547416.790236067     
  9.600000000000000E-006    -609843.647036066     
  9.619999999999999E-006    -637826.816572610     
  9.639999999999999E-006    -630034.722159022     
  9.660000000000001E-006    -587558.462396544     
  9.680000000000000E-006    -513443.749233916     
  9.700000000000000E-006    -411896.997120342     
  9.720000000000000E-006    -288137.731090557     
  9.740000000000000E-006    -148732.799641664     
  9.760000000000000E-006    -1584.82080874210     
  9.780000000000000E-006     144685.437486504     
  9.799999999999999E-006     281696.256522872     
  9.819999999999999E-006     402095.610790086     
  9.840000000000001E-006     499792.286014764     
  9.860000000000000E-006     569825.898437922     
  9.880000000000000E-006     608338.332821823     
  9.900000000000000E-006     612907.043988784     
  9.920000000000000E-006     583124.311749291     
  9.940000000000000E-006     520858.238993273     
  9.960000000000000E-006     429925.310297018     
  9.979999999999999E-006     315596.327735877     
  9.999999999999999E-006     184196.025398551     
  1.002000000000000E-005     42864.0441655819     
  1.004000000000000E-005    -100453.635784431     
  1.006000000000000E-005    -237315.545227306     
  1.008000000000000E-005    -359768.594599733     
  1.010000000000000E-005    -461226.900147448     
  1.012000000000000E-005    -536572.096531234     
  1.014000000000000E-005    -581879.616060055     
  1.016000000000000E-005    -594490.927044054     
  1.018000000000000E-005    -573565.800331768     
  1.020000000000000E-005    -520467.442131616     
  1.022000000000000E-005    -438551.847825709     
  1.024000000000000E-005    -332828.451733056     
  1.026000000000000E-005    -209582.957212635     
  1.028000000000000E-005    -75684.8363427126     
  1.030000000000000E-005     61800.4874198992     
  1.032000000000000E-005     195362.271913108     
  1.034000000000000E-005     317163.373028197     
  1.036000000000000E-005     420045.575376843     
  1.038000000000000E-005     498539.893788929     
  1.040000000000000E-005     548974.205286143     
  1.042000000000000E-005     568955.395146686     
  1.044000000000000E-005     557312.287100480     
  1.046000000000000E-005     514632.064637883     
  1.048000000000000E-005     443421.254389850     
  1.050000000000000E-005     347846.249798851     
  1.052000000000000E-005     233621.947507855     
  1.054000000000000E-005     107628.566923214     