 -1.200000000000000E-006    0.000000000000000E+000
 -1.180000000000000E-006    0.000000000000000E+000
 -1.160000000000000E-006    0.000000000000000E+000
 -1.140000000000000E-006    0.000000000000000E+000
 -1.120000000000000E-006    0.000000000000000E+000
 -1.100000000000000E-006    0.000000000000000E+000
 -1.080000000000000E-006    0.000000000000000E+000
 -1.060000000000000E-006    0.000000000000000E+000
 -1.040000000000000E-006    0.000000000000000E+000
 -1.020000000000000E-006    0.000000000000000E+000
 -1.000000000000000E-006    0.000000000000000E+000
 -9.799999999999999E-007    0.000000000000000E+000
 -9.599999999999999E-007    0.000000000000000E+000
 -9.399999999999999E-007    0.000000000000000E+000
 -9.199999999999999E-007    0.000000000000000E+000
 -9.000000000000000E-007    0.000000000000000E+000
 -8.799999999999999E-007    0.000000000000000E+000
 -8.599999999999999E-007    0.000000000000000E+000
 -8.400000000000000E-007    0.000000000000000E+000
 -8.200000000000000E-007    0.000000000000000E+000
 -8.000000000000000E-007    0.000000000000000E+000
 -7.799999999999999E-007    0.000000000000000E+000
 -7.599999999999999E-007    0.000000000000000E+000
 -7.399999999999999E-007    0.000000000000000E+000
 -7.199999999999999E-007    0.000000000000000E+000
 -7.000000000000000E-007    0.000000000000000E+000
 -6.799999999999999E-007    0.000000000000000E+000
 -6.599999999999999E-007    0.000000000000000E+000
 -6.399999999999999E-007    0.000000000000000E+000
 -6.199999999999999E-007    0.000000000000000E+000
 -6.000000000000000E-007    0.000000000000000E+000
 -5.800000000000000E-007    0.000000000000000E+000
 -5.599999999999999E-007    0.000000000000000E+000
 -5.399999999999999E-007    0.000000000000000E+000
 -5.199999999999999E-007    0.000000000000000E+000
 -5.000000000000000E-007    0.000000000000000E+000
 -4.800000000000000E-007    0.000000000000000E+000
 -4.599999999999999E-007    0.000000000000000E+000
 -4.399999999999999E-007    0.000000000000000E+000
 -4.199999999999999E-007    0.000000000000000E+000
 -4.000000000000000E-007    0.000000000000000E+000
 -3.800000000000000E-007    0.000000000000000E+000
 -3.599999999999999E-007    0.000000000000000E+000
 -3.399999999999999E-007    0.000000000000000E+000
 -3.199999999999999E-007    0.000000000000000E+000
 -2.999999999999999E-007    0.000000000000000E+000
 -2.800000000000000E-007    0.000000000000000E+000
 -2.599999999999999E-007    0.000000000000000E+000
 -2.399999999999998E-007    0.000000000000000E+000
 -2.200000000000000E-007    0.000000000000000E+000
 -2.000000000000000E-007    0.000000000000000E+000
 -1.800000000000000E-007    0.000000000000000E+000
 -1.600000000000000E-007    0.000000000000000E+000
 -1.399999999999999E-007    0.000000000000000E+000
 -1.199999999999999E-007    0.000000000000000E+000
 -9.999999999999989E-008    0.000000000000000E+000
 -7.999999999999987E-008    0.000000000000000E+000
 -5.999999999999985E-008    0.000000000000000E+000
 -3.999999999999983E-008    0.000000000000000E+000
 -2.000000000000002E-008    0.000000000000000E+000
  0.000000000000000E+000    0.000000000000000E+000
  2.000000000000002E-008    0.000000000000000E+000
  4.000000000000004E-008    0.000000000000000E+000
  6.000000000000006E-008    0.000000000000000E+000
  8.000000000000008E-008    0.000000000000000E+000
  1.000000000000001E-007    0.000000000000000E+000
  1.200000000000001E-007    0.000000000000000E+000
  1.400000000000001E-007    0.000000000000000E+000
  1.600000000000002E-007    0.000000000000000E+000
  1.800000000000002E-007    0.000000000000000E+000
  2.000000000000000E-007    0.000000000000000E+000
  2.200000000000000E-007    0.000000000000000E+000
  2.400000000000000E-007    0.000000000000000E+000
  2.600000000000001E-007    0.000000000000000E+000
  2.800000000000001E-007    0.000000000000000E+000
  3.000000000000001E-007    0.000000000000000E+000
  3.200000000000001E-007    0.000000000000000E+000
  3.400000000000001E-007    0.000000000000000E+000
  3.600000000000002E-007    0.000000000000000E+000
  3.800000000000002E-007    0.000000000000000E+000
  4.000000000000000E-007    0.000000000000000E+000
  4.200000000000000E-007    0.000000000000000E+000
  4.400000000000000E-007    0.000000000000000E+000
  4.600000000000000E-007    0.000000000000000E+000
  4.800000000000001E-007    0.000000000000000E+000
  5.000000000000001E-007    0.000000000000000E+000
  5.200000000000001E-007    0.000000000000000E+000
  5.400000000000001E-007    0.000000000000000E+000
  5.600000000000001E-007    0.000000000000000E+000
  5.800000000000002E-007    0.000000000000000E+000
  6.000000000000002E-007    0.000000000000000E+000
  6.200000000000000E-007    0.000000000000000E+000
  6.400000000000000E-007    0.000000000000000E+000
  6.600000000000000E-007    0.000000000000000E+000
  6.800000000000001E-007    0.000000000000000E+000
  7.000000000000001E-007    0.000000000000000E+000
  7.200000000000003E-007    0.000000000000000E+000
  7.400000000000001E-007    0.000000000000000E+000
  7.599999999999999E-007    0.000000000000000E+000
  7.800000000000002E-007    0.000000000000000E+000
  8.000000000000000E-007    0.000000000000000E+000
  8.200000000000002E-007    0.000000000000000E+000
  8.400000000000000E-007    0.000000000000000E+000
  8.600000000000002E-007    0.000000000000000E+000
  8.800000000000000E-007    0.000000000000000E+000
  9.000000000000003E-007    0.000000000000000E+000
  9.200000000000001E-007    0.000000000000000E+000
  9.399999999999999E-007    0.000000000000000E+000
  9.600000000000001E-007    0.000000000000000E+000
  9.799999999999999E-007    0.000000000000000E+000
  1.000000000000000E-006    0.000000000000000E+000
  1.020000000000000E-006    0.000000000000000E+000
  1.040000000000000E-006    0.000000000000000E+000
  1.060000000000000E-006    0.000000000000000E+000
  1.080000000000000E-006    0.000000000000000E+000
  1.100000000000000E-006    0.000000000000000E+000
  1.120000000000000E-006    0.000000000000000E+000
  1.140000000000000E-006    0.000000000000000E+000
  1.160000000000000E-006    0.000000000000000E+000
  1.180000000000000E-006    0.000000000000000E+000
  1.200000000000000E-006    0.000000000000000E+000
  1.220000000000000E-006    0.000000000000000E+000
  1.240000000000000E-006    0.000000000000000E+000
  1.260000000000000E-006    0.000000000000000E+000
  1.280000000000000E-006    0.000000000000000E+000
  1.300000000000000E-006    0.000000000000000E+000
  1.320000000000000E-006    0.000000000000000E+000
  1.340000000000000E-006    0.000000000000000E+000
  1.360000000000000E-006    0.000000000000000E+000
  1.380000000000000E-006    0.000000000000000E+000
  1.400000000000000E-006    0.000000000000000E+000
  1.420000000000000E-006    0.000000000000000E+000
  1.440000000000000E-006    0.000000000000000E+000
  1.460000000000000E-006    0.000000000000000E+000
  1.480000000000000E-006    0.000000000000000E+000
  1.500000000000000E-006    0.000000000000000E+000
  1.520000000000000E-006    0.000000000000000E+000
  1.540000000000000E-006    0.000000000000000E+000
  1.560000000000000E-006    0.000000000000000E+000
  1.580000000000000E-006    0.000000000000000E+000
  1.600000000000000E-006    0.000000000000000E+000
  1.620000000000000E-006    0.000000000000000E+000
  1.640000000000000E-006    0.000000000000000E+000
  1.660000000000000E-006    0.000000000000000E+000
  1.680000000000000E-006    0.000000000000000E+000
  1.700000000000000E-006    0.000000000000000E+000
  1.720000000000000E-006    0.000000000000000E+000
  1.740000000000000E-006    0.000000000000000E+000
  1.760000000000000E-006    0.000000000000000E+000
  1.780000000000000E-006    0.000000000000000E+000
  1.800000000000000E-006    0.000000000000000E+000
  1.820000000000000E-006    0.000000000000000E+000
  1.840000000000000E-006    0.000000000000000E+000
  1.860000000000000E-006    0.000000000000000E+000
  1.880000000000000E-006    0.000000000000000E+000
  1.900000000000000E-006    0.000000000000000E+000
  1.920000000000000E-006    0.000000000000000E+000
  1.940000000000000E-006    0.000000000000000E+000
  1.960000000000000E-006    0.000000000000000E+000
  1.980000000000000E-006    0.000000000000000E+000
  2.000000000000000E-006    0.000000000000000E+000
  2.020000000000000E-006    0.000000000000000E+000
  2.040000000000000E-006    0.000000000000000E+000
  2.060000000000000E-006    0.000000000000000E+000
  2.080000000000000E-006    0.000000000000000E+000
  2.100000000000000E-006    0.000000000000000E+000
  2.120000000000000E-006    0.000000000000000E+000
  2.140000000000000E-006    0.000000000000000E+000
  2.160000000000000E-006    0.000000000000000E+000
  2.180000000000000E-006    0.000000000000000E+000
  2.200000000000000E-006    0.000000000000000E+000
  2.220000000000000E-006    0.000000000000000E+000
  2.240000000000000E-006    0.000000000000000E+000
  2.260000000000000E-006    0.000000000000000E+000
  2.280000000000000E-006    0.000000000000000E+000
  2.300000000000000E-006    0.000000000000000E+000
  2.320000000000000E-006    0.000000000000000E+000
  2.340000000000000E-006    0.000000000000000E+000
  2.360000000000000E-006    0.000000000000000E+000
  2.380000000000000E-006    0.000000000000000E+000
  2.400000000000000E-006    0.000000000000000E+000
  2.420000000000000E-006    0.000000000000000E+000
  2.440000000000000E-006    0.000000000000000E+000
  2.460000000000000E-006    0.000000000000000E+000
  2.480000000000000E-006    0.000000000000000E+000
  2.500000000000000E-006    0.000000000000000E+000
  2.520000000000000E-006    0.000000000000000E+000
  2.540000000000000E-006    0.000000000000000E+000
  2.560000000000000E-006    0.000000000000000E+000
  2.580000000000000E-006    0.000000000000000E+000
  2.600000000000000E-006    0.000000000000000E+000
  2.620000000000000E-006    0.000000000000000E+000
  2.640000000000001E-006    0.000000000000000E+000
  2.660000000000000E-006    0.000000000000000E+000
  2.680000000000000E-006    0.000000000000000E+000
  2.700000000000000E-006    0.000000000000000E+000
  2.720000000000000E-006    0.000000000000000E+000
  2.740000000000000E-006    0.000000000000000E+000
  2.760000000000000E-006    0.000000000000000E+000
  2.780000000000000E-006    0.000000000000000E+000
  2.800000000000000E-006    0.000000000000000E+000
  2.820000000000001E-006    0.000000000000000E+000
  2.840000000000000E-006    0.000000000000000E+000
  2.860000000000000E-006    0.000000000000000E+000
  2.880000000000000E-006    0.000000000000000E+000
  2.900000000000000E-006    0.000000000000000E+000
  2.920000000000000E-006    0.000000000000000E+000
  2.940000000000000E-006    0.000000000000000E+000
  2.960000000000000E-006    0.000000000000000E+000
  2.980000000000000E-006    0.000000000000000E+000
  3.000000000000000E-006    0.000000000000000E+000
  3.020000000000000E-006    0.000000000000000E+000
  3.040000000000000E-006    0.000000000000000E+000
  3.060000000000000E-006    0.000000000000000E+000
  3.080000000000000E-006    0.000000000000000E+000
  3.100000000000000E-006    0.000000000000000E+000
  3.120000000000000E-006    0.000000000000000E+000
  3.140000000000000E-006    0.000000000000000E+000
  3.160000000000000E-006    0.000000000000000E+000
  3.180000000000000E-006    0.000000000000000E+000
  3.200000000000000E-006    0.000000000000000E+000
  3.220000000000000E-006    0.000000000000000E+000
  3.240000000000000E-006    0.000000000000000E+000
  3.260000000000001E-006    0.000000000000000E+000
  3.280000000000000E-006    0.000000000000000E+000
  3.300000000000000E-006    0.000000000000000E+000
  3.320000000000000E-006    0.000000000000000E+000
  3.340000000000000E-006    0.000000000000000E+000
  3.360000000000000E-006    0.000000000000000E+000
  3.380000000000000E-006    0.000000000000000E+000
  3.400000000000000E-006    0.000000000000000E+000
  3.420000000000000E-006    0.000000000000000E+000
  3.440000000000001E-006    0.000000000000000E+000
  3.460000000000000E-006    0.000000000000000E+000
  3.480000000000000E-006    0.000000000000000E+000
  3.500000000000000E-006    0.000000000000000E+000
  3.520000000000000E-006    0.000000000000000E+000
  3.540000000000000E-006    0.000000000000000E+000
  3.560000000000000E-006    0.000000000000000E+000
  3.580000000000000E-006    0.000000000000000E+000
  3.600000000000000E-006    0.000000000000000E+000
  3.620000000000000E-006    0.000000000000000E+000
  3.640000000000000E-006    0.000000000000000E+000
  3.660000000000000E-006    0.000000000000000E+000
  3.680000000000000E-006    0.000000000000000E+000
  3.700000000000001E-006    0.000000000000000E+000
  3.720000000000000E-006    0.000000000000000E+000
  3.740000000000000E-006    0.000000000000000E+000
  3.760000000000000E-006    0.000000000000000E+000
  3.780000000000000E-006    0.000000000000000E+000
  3.800000000000000E-006    0.000000000000000E+000
  3.820000000000001E-006    0.000000000000000E+000
  3.840000000000001E-006    0.000000000000000E+000
  3.860000000000000E-006    0.000000000000000E+000
  3.880000000000000E-006    0.000000000000000E+000
  3.900000000000000E-006    0.000000000000000E+000
  3.920000000000000E-006    0.000000000000000E+000
  3.940000000000000E-006    0.000000000000000E+000
  3.959999999999999E-006    0.000000000000000E+000
  3.980000000000001E-006    0.000000000000000E+000
  4.000000000000001E-006    0.000000000000000E+000
  4.020000000000000E-006    0.000000000000000E+000
  4.040000000000000E-006    0.000000000000000E+000
  4.060000000000000E-006    0.000000000000000E+000
  4.080000000000000E-006    0.000000000000000E+000
  4.100000000000000E-006    0.000000000000000E+000
  4.120000000000000E-006    0.000000000000000E+000
  4.139999999999999E-006    0.000000000000000E+000
  4.160000000000001E-006    0.000000000000000E+000
  4.180000000000001E-006    0.000000000000000E+000
  4.200000000000000E-006    0.000000000000000E+000
  4.220000000000000E-006    0.000000000000000E+000
  4.240000000000000E-006    0.000000000000000E+000
  4.260000000000000E-006    0.000000000000000E+000
  4.280000000000000E-006    0.000000000000000E+000
  4.299999999999999E-006    0.000000000000000E+000
  4.320000000000001E-006    0.000000000000000E+000
  4.340000000000001E-006    0.000000000000000E+000
  4.360000000000001E-006    0.000000000000000E+000
  4.380000000000000E-006    0.000000000000000E+000
  4.400000000000000E-006    0.000000000000000E+000
  4.420000000000000E-006    0.000000000000000E+000
  4.440000000000000E-006    0.000000000000000E+000
  4.460000000000000E-006    0.000000000000000E+000
  4.479999999999999E-006    0.000000000000000E+000
  4.500000000000001E-006    0.000000000000000E+000
  4.520000000000001E-006    0.000000000000000E+000
  4.540000000000001E-006    0.000000000000000E+000
  4.560000000000000E-006    0.000000000000000E+000
  4.580000000000000E-006    0.000000000000000E+000
  4.600000000000000E-006    0.000000000000000E+000
  4.620000000000000E-006    0.000000000000000E+000
  4.640000000000000E-006    0.000000000000000E+000
  4.659999999999999E-006    0.000000000000000E+000
  4.680000000000001E-006    0.000000000000000E+000
  4.700000000000001E-006    0.000000000000000E+000
  4.720000000000001E-006    0.000000000000000E+000
  4.740000000000000E-006    0.000000000000000E+000
  4.760000000000000E-006    0.000000000000000E+000
  4.780000000000000E-006    0.000000000000000E+000
  4.800000000000000E-006    0.000000000000000E+000
  4.820000000000000E-006    0.000000000000000E+000
  4.839999999999999E-006    0.000000000000000E+000
  4.860000000000001E-006    0.000000000000000E+000
  4.880000000000001E-006    0.000000000000000E+000
  4.900000000000001E-006    0.000000000000000E+000
  4.920000000000000E-006    0.000000000000000E+000
  4.940000000000000E-006    0.000000000000000E+000
  4.960000000000000E-006    0.000000000000000E+000
  4.980000000000000E-006    0.000000000000000E+000
  5.000000000000000E-006    0.000000000000000E+000
  5.019999999999999E-006    0.000000000000000E+000
  5.040000000000001E-006    0.000000000000000E+000
  5.060000000000001E-006    0.000000000000000E+000
  5.080000000000000E-006    0.000000000000000E+000
  5.100000000000000E-006    0.000000000000000E+000
  5.120000000000000E-006    0.000000000000000E+000
  5.140000000000000E-006    0.000000000000000E+000
  5.160000000000000E-006    0.000000000000000E+000
  5.180000000000000E-006    0.000000000000000E+000
  5.199999999999999E-006    0.000000000000000E+000
  5.220000000000001E-006    0.000000000000000E+000
  5.240000000000001E-006    0.000000000000000E+000
  5.260000000000000E-006    0.000000000000000E+000
  5.280000000000000E-006    0.000000000000000E+000
  5.300000000000000E-006    0.000000000000000E+000
  5.320000000000000E-006    0.000000000000000E+000
  5.340000000000000E-006    0.000000000000000E+000
  5.360000000000000E-006    0.000000000000000E+000
  5.380000000000001E-006    0.000000000000000E+000
  5.400000000000001E-006    0.000000000000000E+000
  5.420000000000001E-006    0.000000000000000E+000
  5.440000000000000E-006    0.000000000000000E+000
  5.460000000000000E-006    0.000000000000000E+000
  5.480000000000000E-006    0.000000000000000E+000
  5.500000000000000E-006    0.000000000000000E+000
  5.520000000000000E-006    0.000000000000000E+000
  5.539999999999999E-006    0.000000000000000E+000
  5.560000000000001E-006    0.000000000000000E+000
  5.580000000000001E-006    0.000000000000000E+000
  5.600000000000001E-006    0.000000000000000E+000
  5.620000000000000E-006    0.000000000000000E+000
  5.640000000000000E-006    0.000000000000000E+000
  5.660000000000000E-006    0.000000000000000E+000
  5.680000000000000E-006    0.000000000000000E+000
  5.700000000000000E-006    0.000000000000000E+000
  5.719999999999999E-006    0.000000000000000E+000
  5.740000000000001E-006    0.000000000000000E+000
  5.760000000000001E-006    0.000000000000000E+000
  5.780000000000001E-006    0.000000000000000E+000
  5.800000000000000E-006    0.000000000000000E+000
  5.820000000000000E-006    0.000000000000000E+000
  5.840000000000000E-006    0.000000000000000E+000
  5.860000000000000E-006    0.000000000000000E+000
  5.880000000000000E-006    0.000000000000000E+000
  5.899999999999999E-006    0.000000000000000E+000
  5.920000000000001E-006    0.000000000000000E+000
  5.940000000000001E-006    0.000000000000000E+000
  5.960000000000001E-006    0.000000000000000E+000
  5.980000000000000E-006    0.000000000000000E+000
  6.000000000000000E-006    0.000000000000000E+000
  6.020000000000000E-006    0.000000000000000E+000
  6.040000000000000E-006    0.000000000000000E+000
  6.060000000000000E-006    0.000000000000000E+000
  6.079999999999999E-006    0.000000000000000E+000
  6.100000000000001E-006    0.000000000000000E+000
  6.120000000000001E-006    0.000000000000000E+000
  6.140000000000001E-006    0.000000000000000E+000
  6.160000000000000E-006    0.000000000000000E+000
  6.180000000000000E-006    0.000000000000000E+000
  6.200000000000000E-006    0.000000000000000E+000
  6.220000000000000E-006    0.000000000000000E+000
  6.240000000000000E-006    0.000000000000000E+000
  6.260000000000001E-006    0.000000000000000E+000
  6.280000000000001E-006    0.000000000000000E+000
  6.300000000000001E-006    0.000000000000000E+000
  6.320000000000000E-006    0.000000000000000E+000
  6.340000000000000E-006    0.000000000000000E+000
  6.360000000000000E-006    0.000000000000000E+000
  6.380000000000000E-006    0.000000000000000E+000
  6.400000000000000E-006    0.000000000000000E+000
  6.420000000000000E-006    0.000000000000000E+000
  6.439999999999999E-006    0.000000000000000E+000
  6.459999999999999E-006    0.000000000000000E+000
  6.480000000000001E-006    0.000000000000000E+000
  6.500000000000000E-006    0.000000000000000E+000
  6.520000000000000E-006    0.000000000000000E+000
  6.540000000000000E-006    0.000000000000000E+000
  6.560000000000000E-006    0.000000000000000E+000
  6.580000000000000E-006    0.000000000000000E+000
  6.599999999999999E-006    0.000000000000000E+000
  6.619999999999999E-006    0.000000000000000E+000
  6.639999999999999E-006    0.000000000000000E+000
  6.660000000000001E-006    0.000000000000000E+000
  6.680000000000000E-006    0.000000000000000E+000
  6.700000000000000E-006    0.000000000000000E+000
  6.720000000000000E-006    0.000000000000000E+000
  6.740000000000000E-006    0.000000000000000E+000
  6.760000000000000E-006    0.000000000000000E+000
  6.779999999999999E-006    0.000000000000000E+000
  6.799999999999999E-006    0.000000000000000E+000
  6.819999999999999E-006    0.000000000000000E+000
  6.840000000000001E-006    0.000000000000000E+000
  6.860000000000000E-006    0.000000000000000E+000
  6.880000000000000E-006    0.000000000000000E+000
  6.900000000000000E-006    0.000000000000000E+000
  6.920000000000000E-006    0.000000000000000E+000
  6.940000000000000E-006    0.000000000000000E+000
  6.959999999999999E-006    0.000000000000000E+000
  6.979999999999999E-006    0.000000000000000E+000
  6.999999999999999E-006    0.000000000000000E+000
  7.020000000000001E-006    0.000000000000000E+000
  7.040000000000000E-006    0.000000000000000E+000
  7.060000000000000E-006    0.000000000000000E+000
  7.080000000000000E-006    0.000000000000000E+000
  7.100000000000000E-006    0.000000000000000E+000
  7.120000000000000E-006   -4.320604851187425E-038
  7.139999999999999E-006   -8.641209702374850E-038
  7.159999999999999E-006    4.094939781125306E-038
  7.179999999999999E-006    1.683108919480012E-037
  7.200000000000001E-006    2.300287095726465E-037
  7.220000000000000E-006    2.447538420551854E-037
  7.240000000000000E-006    4.985520919557171E-038
  7.260000000000000E-006   -2.755962516346654E-037
  7.280000000000000E-006   -5.025587736359832E-037
  7.300000000000000E-006   -2.084041043391346E-037
  7.319999999999999E-006    1.492985611127170E-037
  7.339999999999999E-006   -7.802604495822360E-037
  7.359999999999999E-006   -2.187332859098814E-036
  7.380000000000000E-006   -1.512673210393111E-036
  7.400000000000000E-006    7.863798979158998E-037
  7.420000000000000E-006    2.494514443875622E-036
  7.440000000000000E-006    3.313393905500100E-036
  7.460000000000000E-006    1.128997667591755E-036
  7.480000000000000E-006   -3.803154751779937E-036
  7.499999999999999E-006   -1.107352023634489E-035
  7.519999999999999E-006   -1.365940272100067E-035
  7.540000000000001E-006   -3.426934850278513E-036
  7.560000000000000E-006    2.264975334762282E-035
  7.580000000000000E-006    4.922547175742564E-035
  7.600000000000000E-006    5.189644639218163E-035
  7.620000000000000E-006    7.489616784952515E-036
  7.640000000000000E-006   -8.972541750013083E-035
  7.660000000000000E-006   -1.888952083692787E-034
  7.679999999999999E-006   -1.824237186538191E-034
  7.699999999999999E-006    2.699126577236481E-035
  7.720000000000001E-006    4.103974058042188E-034
  7.740000000000000E-006    7.300302980168775E-034
  7.760000000000000E-006    5.906554229395179E-034
  7.780000000000000E-006   -3.039125392510502E-034
  7.800000000000000E-006   -1.749081816559512E-033
  7.820000000000000E-006   -2.763473513058874E-033
  7.839999999999999E-006   -1.859191118855545E-033
  7.859999999999999E-006    1.877664871491976E-033
  7.879999999999999E-006    7.273510536043092E-033
  7.900000000000001E-006    1.028675296981956E-032
  7.920000000000000E-006    5.460458077890215E-033
  7.940000000000000E-006   -9.743856868778077E-033
  7.960000000000000E-006   -2.947697479764462E-032
  7.980000000000000E-006   -3.753932618086635E-032
  8.000000000000000E-006   -1.431804399807059E-032
  8.019999999999999E-006    4.610261276719831E-032
  8.039999999999999E-006    1.167209847241968E-031
  8.059999999999999E-006    1.342117550626645E-031
  8.080000000000001E-006    2.983988698011383E-032
  8.100000000000000E-006   -2.047991263238824E-031
  8.120000000000000E-006   -4.520883222016624E-031
  8.140000000000000E-006   -4.702914687701051E-031
  8.160000000000000E-006   -2.440721212755217E-032
  8.180000000000000E-006    8.674600628996883E-031
  8.199999999999999E-006    1.715903233610867E-030
  8.219999999999999E-006    1.618202754955727E-030
  8.239999999999999E-006   -2.108486683303022E-031
  8.260000000000001E-006   -3.536220960782430E-030
  8.280000000000000E-006   -6.396632190102451E-030
  8.300000000000000E-006   -5.485591660006924E-030
  8.320000000000000E-006    1.769589821454006E-030
  8.340000000000000E-006    1.396368549585759E-029
  8.360000000000000E-006    2.348078180212262E-029
  8.379999999999999E-006    1.840714404879183E-029
  8.399999999999999E-006   -9.565037730102742E-030
  8.419999999999999E-006   -5.366485748038834E-029
  8.440000000000001E-006   -8.510077492867063E-029
  8.460000000000000E-006   -6.151455691573944E-029
  8.480000000000000E-006    4.372475329682550E-029
  8.500000000000000E-006    2.014534281925441E-028
  8.520000000000000E-006    3.053090173226734E-028
  8.540000000000000E-006    2.062252156303049E-028
  8.559999999999999E-006   -1.813205681737505E-028
  8.579999999999999E-006   -7.406730970710370E-028
  8.600000000000001E-006   -1.086772316795511E-027
  8.620000000000000E-006   -6.989061369931224E-028
  8.640000000000000E-006    7.011383495867963E-028
  8.660000000000000E-006    2.672309575342855E-027
  8.680000000000000E-006    3.845457461693724E-027
  8.700000000000000E-006    2.410864641754507E-027
  8.720000000000000E-006   -2.558359543369213E-027
  8.739999999999999E-006   -9.472376708159213E-027
  8.759999999999999E-006   -1.354308672038685E-026
  8.780000000000001E-006   -8.501953969445644E-027
  8.800000000000000E-006    8.839248848378562E-027
  8.820000000000000E-006    3.299925404968021E-026
  8.840000000000000E-006    4.749793026309791E-026
  8.860000000000000E-006    3.067600823406606E-026
  8.880000000000000E-006   -2.881955399521758E-026
  8.899999999999999E-006   -1.129313268283222E-025
  8.919999999999999E-006   -1.658380292812739E-025
  8.939999999999999E-006   -1.128930922314701E-025
  8.960000000000001E-006    8.758390426582776E-026
  8.980000000000000E-006    3.790875234687781E-025
  9.000000000000000E-006    5.757582846984533E-025
  9.020000000000000E-006    4.212432523327056E-025
  9.040000000000000E-006   -2.408512470795890E-025
  9.060000000000000E-006   -1.244841211134447E-024
  9.079999999999999E-006   -1.983685463203526E-024
  9.099999999999999E-006   -1.581843071103176E-024
  9.119999999999999E-006    5.539119433103819E-025
  9.140000000000001E-006    3.981629115882677E-024
  9.160000000000000E-006    6.763242922184335E-024
  9.180000000000000E-006    5.933257722013415E-024
  9.200000000000000E-006   -7.599338569889949E-025
  9.220000000000000E-006   -1.232179188801940E-023
  9.240000000000000E-006   -2.273588819792372E-023
  9.259999999999999E-006   -2.207660458737066E-023
  9.279999999999999E-006   -1.867177227585225E-024
  9.299999999999999E-006    3.650212954059897E-023
  9.320000000000001E-006    7.501788256516812E-023
  9.340000000000000E-006    8.099628765470085E-023
  9.360000000000000E-006    2.299993118536131E-023
  9.380000000000000E-006   -1.016305700815597E-022
  9.400000000000000E-006   -2.415571500469969E-022
  9.420000000000000E-006   -2.914582667644104E-022
  9.439999999999999E-006   -1.371134043069036E-022
  9.459999999999999E-006    2.565019331263767E-022
  9.479999999999999E-006    7.533351183377651E-022
  9.500000000000001E-006    1.023488102208620E-021
  9.520000000000000E-006    6.623183083751103E-022
  9.540000000000000E-006   -5.356179452086833E-022
  9.560000000000000E-006   -2.251181929704824E-021
  9.580000000000000E-006   -3.489028971206999E-021
  9.600000000000000E-006   -2.857945589055313E-021
  9.619999999999999E-006    6.088720539321376E-022
  9.639999999999999E-006    6.338175803483324E-021
  9.660000000000001E-006    1.147557054150940E-020
  9.680000000000000E-006    1.140331504479072E-020
  9.700000000000000E-006    2.073928883082161E-021
  9.720000000000000E-006   -1.630414917243640E-020
  9.740000000000000E-006   -3.612276092313931E-020
  9.760000000000000E-006   -4.268340770645158E-020
  9.780000000000000E-006   -2.036703471816266E-020
  9.799999999999999E-006    3.571076764825000E-020
  9.819999999999999E-006    1.075325400805733E-019
  9.840000000000001E-006    1.506613134294149E-019
  9.860000000000000E-006    1.087390464125929E-019
  9.880000000000000E-006   -5.155733806642510E-020
  9.900000000000000E-006   -2.967331864662515E-019
  9.920000000000000E-006   -5.011481805228714E-019
  9.940000000000000E-006   -4.738335099062096E-019
  9.960000000000000E-006   -5.637978043657145E-020
  9.979999999999999E-006    7.295885084934435E-019
  9.999999999999999E-006    1.561172765598911E-018
  1.002000000000000E-005    1.832109346336308E-018
  1.004000000000000E-005    9.015028549978052E-019
  1.006000000000000E-005   -1.441939641251201E-018
  1.008000000000000E-005   -4.491047647498343E-018
  1.010000000000000E-005   -6.459650919934159E-018
  1.012000000000000E-005   -5.019455061061693E-018
  1.014000000000000E-005    1.346613090286459E-018
  1.016000000000000E-005    1.158210480582929E-017
  1.018000000000000E-005    2.090542287546322E-017
  1.020000000000000E-005    2.159135518720552E-017
  1.022000000000000E-005    6.547367361274823E-018
  1.024000000000000E-005   -2.489909787678278E-017
  1.026000000000000E-005   -6.166716748092533E-017
  1.028000000000000E-005   -8.034795748092235E-017
  1.030000000000000E-005   -5.335496341260982E-017
  1.032000000000000E-005    3.375506241832505E-017
  1.034000000000000E-005    1.617813829874268E-016
  1.036000000000000E-005    2.669439072806398E-016
  1.038000000000000E-005    2.546072590237007E-016
  1.040000000000000E-005    4.578314064449081E-017
  1.042000000000000E-005   -3.534658156747615E-016
  1.044000000000000E-005   -7.935124093062124E-016
  1.046000000000000E-005   -9.840467822224169E-016
  1.048000000000000E-005   -6.011423793235821E-016
  1.050000000000000E-005    5.029648993053710E-016
  1.052000000000000E-005    2.063965115824560E-015
  1.054000000000000E-005    3.294147256679944E-015