 -1.200000000000000E-006    0.000000000000000E+000
 -1.180000000000000E-006    0.000000000000000E+000
 -1.160000000000000E-006    0.000000000000000E+000
 -1.140000000000000E-006    0.000000000000000E+000
 -1.120000000000000E-006    0.000000000000000E+000
 -1.100000000000000E-006    0.000000000000000E+000
 -1.080000000000000E-006    0.000000000000000E+000
 -1.060000000000000E-006    0.000000000000000E+000
 -1.040000000000000E-006    0.000000000000000E+000
 -1.020000000000000E-006    0.000000000000000E+000
 -1.000000000000000E-006    0.000000000000000E+000
 -9.799999999999999E-007    0.000000000000000E+000
 -9.599999999999999E-007    0.000000000000000E+000
 -9.399999999999999E-007    0.000000000000000E+000
 -9.199999999999999E-007    0.000000000000000E+000
 -9.000000000000000E-007    0.000000000000000E+000
 -8.799999999999999E-007    0.000000000000000E+000
 -8.599999999999999E-007    0.000000000000000E+000
 -8.400000000000000E-007    0.000000000000000E+000
 -8.200000000000000E-007    0.000000000000000E+000
 -8.000000000000000E-007    0.000000000000000E+000
 -7.799999999999999E-007    0.000000000000000E+000
 -7.599999999999999E-007    0.000000000000000E+000
 -7.399999999999999E-007    0.000000000000000E+000
 -7.199999999999999E-007    0.000000000000000E+000
 -7.000000000000000E-007    0.000000000000000E+000
 -6.799999999999999E-007    0.000000000000000E+000
 -6.599999999999999E-007    0.000000000000000E+000
 -6.399999999999999E-007    0.000000000000000E+000
 -6.199999999999999E-007    0.000000000000000E+000
 -6.000000000000000E-007    0.000000000000000E+000
 -5.800000000000000E-007    0.000000000000000E+000
 -5.599999999999999E-007    0.000000000000000E+000
 -5.399999999999999E-007    0.000000000000000E+000
 -5.199999999999999E-007    0.000000000000000E+000
 -5.000000000000000E-007    0.000000000000000E+000
 -4.800000000000000E-007    0.000000000000000E+000
 -4.599999999999999E-007    0.000000000000000E+000
 -4.399999999999999E-007    0.000000000000000E+000
 -4.199999999999999E-007    0.000000000000000E+000
 -4.000000000000000E-007    0.000000000000000E+000
 -3.800000000000000E-007    0.000000000000000E+000
 -3.599999999999999E-007    0.000000000000000E+000
 -3.399999999999999E-007    0.000000000000000E+000
 -3.199999999999999E-007    0.000000000000000E+000
 -2.999999999999999E-007    0.000000000000000E+000
 -2.800000000000000E-007    0.000000000000000E+000
 -2.599999999999999E-007    0.000000000000000E+000
 -2.399999999999998E-007    0.000000000000000E+000
 -2.200000000000000E-007    0.000000000000000E+000
 -2.000000000000000E-007    0.000000000000000E+000
 -1.800000000000000E-007    0.000000000000000E+000
 -1.600000000000000E-007    0.000000000000000E+000
 -1.399999999999999E-007    0.000000000000000E+000
 -1.199999999999999E-007    0.000000000000000E+000
 -9.999999999999989E-008    0.000000000000000E+000
 -7.999999999999987E-008    0.000000000000000E+000
 -5.999999999999985E-008    0.000000000000000E+000
 -3.999999999999983E-008    0.000000000000000E+000
 -2.000000000000002E-008    0.000000000000000E+000
  0.000000000000000E+000    0.000000000000000E+000
  2.000000000000002E-008    0.000000000000000E+000
  4.000000000000004E-008    0.000000000000000E+000
  6.000000000000006E-008    0.000000000000000E+000
  8.000000000000008E-008    0.000000000000000E+000
  1.000000000000001E-007    0.000000000000000E+000
  1.200000000000001E-007    0.000000000000000E+000
  1.400000000000001E-007    0.000000000000000E+000
  1.600000000000002E-007    0.000000000000000E+000
  1.800000000000002E-007    0.000000000000000E+000
  2.000000000000000E-007    0.000000000000000E+000
  2.200000000000000E-007    0.000000000000000E+000
  2.400000000000000E-007    0.000000000000000E+000
  2.600000000000001E-007    0.000000000000000E+000
  2.800000000000001E-007    0.000000000000000E+000
  3.000000000000001E-007    0.000000000000000E+000
  3.200000000000001E-007    0.000000000000000E+000
  3.400000000000001E-007    0.000000000000000E+000
  3.600000000000002E-007    0.000000000000000E+000
  3.800000000000002E-007    0.000000000000000E+000
  4.000000000000000E-007    0.000000000000000E+000
  4.200000000000000E-007    0.000000000000000E+000
  4.400000000000000E-007    0.000000000000000E+000
  4.600000000000000E-007    0.000000000000000E+000
  4.800000000000001E-007    0.000000000000000E+000
  5.000000000000001E-007    0.000000000000000E+000
  5.200000000000001E-007    0.000000000000000E+000
  5.400000000000001E-007    0.000000000000000E+000
  5.600000000000001E-007    0.000000000000000E+000
  5.800000000000002E-007    0.000000000000000E+000
  6.000000000000002E-007    0.000000000000000E+000
  6.200000000000000E-007    0.000000000000000E+000
  6.400000000000000E-007    0.000000000000000E+000
  6.600000000000000E-007    0.000000000000000E+000
  6.800000000000001E-007    0.000000000000000E+000
  7.000000000000001E-007    0.000000000000000E+000
  7.200000000000003E-007    0.000000000000000E+000
  7.400000000000001E-007    0.000000000000000E+000
  7.599999999999999E-007    0.000000000000000E+000
  7.800000000000002E-007    0.000000000000000E+000
  8.000000000000000E-007    0.000000000000000E+000
  8.200000000000002E-007    0.000000000000000E+000
  8.400000000000000E-007   -8.031680206877421E-038
  8.600000000000002E-007    1.054674216203396E-037
  8.800000000000000E-007    1.402758645804183E-037
  9.000000000000003E-007   -5.729191285326925E-037
  9.200000000000001E-007    1.963468659907234E-036
  9.399999999999999E-007   -2.814720683493609E-036
  9.600000000000001E-007   -6.430847952479421E-037
  9.799999999999999E-007    1.299908738537355E-035
  1.000000000000000E-006   -2.310262540927043E-035
  1.020000000000000E-006    5.794003435779054E-036
  1.040000000000000E-006    5.317095309182825E-035
  1.060000000000000E-006   -1.177674455033702E-034
  1.080000000000000E-006    7.456685012842457E-035
  1.100000000000000E-006    1.919031464480021E-034
  1.120000000000000E-006   -5.426435555051832E-034
  1.140000000000000E-006    4.653864118231200E-034
  1.160000000000000E-006    6.129273074158969E-034
  1.180000000000000E-006   -2.286583074037137E-033
  1.200000000000000E-006    2.368984898634863E-033
  1.220000000000000E-006    1.771080758760270E-033
  1.240000000000000E-006   -9.020004343051289E-033
  1.260000000000000E-006    1.068126166868744E-032
  1.280000000000000E-006    4.706552952187354E-033
  1.300000000000000E-006   -3.378662659510197E-032
  1.320000000000000E-006    4.378362071259740E-032
  1.340000000000000E-006    9.941293836390351E-033
  1.360000000000000E-006   -1.228454172810478E-031
  1.380000000000000E-006    1.740096152853155E-031
  1.400000000000000E-006    2.466954836149401E-032
  1.420000000000000E-006   -4.480215228141929E-031
  1.440000000000000E-006    6.111879917227943E-031
  1.460000000000000E-006    7.607269550992047E-032
  1.480000000000000E-006   -1.469665478857094E-030
  1.500000000000000E-006    2.156030382173343E-030
  1.520000000000000E-006    7.193384101488284E-032
  1.540000000000000E-006   -5.230135594875239E-030
  1.560000000000000E-006    7.266989690618192E-030
  1.580000000000000E-006    1.184704768975852E-030
  1.600000000000000E-006   -1.634350318028193E-029
  1.620000000000000E-006    2.221960231592963E-029
  1.640000000000000E-006    6.473009740577275E-031
  1.660000000000000E-006   -5.539709172273533E-029
  1.680000000000000E-006    7.666007961745562E-029
  1.700000000000000E-006    2.696244238989407E-029
  1.720000000000000E-006   -1.720068502981647E-028
  1.740000000000000E-006    1.639862650873353E-028
  1.760000000000000E-006    2.323137346848139E-029
  1.780000000000000E-006   -4.243019154546307E-028
  1.800000000000000E-006    7.516404271417320E-028
  1.820000000000000E-006    1.917164435464070E-028
  1.840000000000000E-006   -1.878979544508516E-027
  1.860000000000000E-006    1.159017950849715E-027
  1.880000000000000E-006    1.233674395622430E-027
  1.900000000000000E-006   -2.515014525561688E-027
  1.920000000000000E-006    4.609643452378087E-027
  1.940000000000000E-006   -4.727351719587589E-028
  1.960000000000000E-006   -1.486853794125531E-026
  1.980000000000000E-006    1.088864901044552E-026
  2.000000000000000E-006    1.563845923404807E-026
  2.020000000000000E-006   -1.716878085552172E-026
  2.040000000000000E-006    1.867530117952632E-026
  2.060000000000000E-006   -1.186066630653931E-026
  2.080000000000000E-006   -9.289018797178346E-026
  2.100000000000000E-006    8.415926630865673E-026
  2.120000000000000E-006    1.319277273661897E-025
  2.140000000000000E-006   -9.619814443987046E-026
  2.160000000000000E-006    3.223631969745250E-026
  2.180000000000000E-006   -1.486523094760788E-025
  2.200000000000000E-006   -4.945279172997470E-025
  2.220000000000000E-006    5.876576993102062E-025
  2.240000000000000E-006    8.841429947851392E-025
  2.260000000000000E-006   -4.364100496064458E-025
  2.280000000000000E-006   -1.089038838030876E-025
  2.300000000000000E-006   -1.198522073628400E-024
  2.320000000000000E-006   -2.712604601590181E-024
  2.340000000000000E-006    2.772595981815477E-024
  2.360000000000000E-006    5.203176536881427E-024
  2.380000000000000E-006    8.533017847808601E-025
  2.400000000000000E-006    7.627367826158355E-025
  2.420000000000000E-006   -1.027784806196577E-023
  2.440000000000000E-006   -2.098706674370374E-023
  2.460000000000000E-006    6.605149325819080E-024
  2.480000000000000E-006    3.302427391617984E-023
  2.500000000000000E-006    3.547568552680074E-023
  2.520000000000000E-006    2.506362184045193E-023
  2.540000000000000E-006   -7.133228052240810E-023
  2.560000000000000E-006   -1.632482757882460E-022
  2.580000000000000E-006   -5.612876444127829E-023
  2.600000000000000E-006    1.491962078766461E-022
  2.620000000000000E-006    3.594312529436168E-022
  2.640000000000001E-006    3.944003146241946E-022
  2.660000000000000E-006   -2.223206420713060E-022
  2.680000000000000E-006   -1.078452016460131E-021
  2.700000000000000E-006   -1.142045074556057E-021
  2.720000000000000E-006   -6.331308943940113E-023
  2.740000000000000E-006    2.231040908292034E-021
  2.760000000000000E-006    3.980311108164511E-021
  2.780000000000000E-006    1.695297053653120E-021
  2.800000000000000E-006   -4.381400439204485E-021
  2.820000000000001E-006   -1.005359991045412E-020
  2.840000000000000E-006   -9.240058695626376E-021
  2.860000000000000E-006    4.429454650504852E-021
  2.880000000000000E-006    2.479501467668595E-020
  2.900000000000000E-006    3.131370000849093E-020
  2.920000000000000E-006    7.864965357620293E-021
  2.940000000000000E-006   -4.523773400237589E-020
  2.960000000000000E-006   -9.252266122286785E-020
  2.980000000000000E-006   -6.739964704740986E-020
  3.000000000000000E-006    5.516723752163801E-020
  3.020000000000000E-006    2.117844775331133E-019
  3.040000000000000E-006    2.627799508709028E-019
  3.060000000000000E-006    5.357607967323672E-020
  3.080000000000000E-006   -3.876880380495437E-019
  3.100000000000000E-006   -7.364156725550557E-019
  3.120000000000000E-006   -5.649420656284341E-019
  3.140000000000000E-006    3.511916631395899E-019
  3.160000000000000E-006    1.623207251820504E-018
  3.180000000000000E-006    2.106177444547846E-018
  3.200000000000000E-006    7.257170417347993E-019
  3.220000000000000E-006   -2.408287348931923E-018
  3.240000000000000E-006   -5.420622562855505E-018
  3.260000000000001E-006   -5.033733208249648E-018
  3.280000000000000E-006    8.428795998230683E-019
  3.300000000000000E-006    9.919128169478359E-018
  3.320000000000000E-006    1.543690706070649E-017
  3.340000000000000E-006    9.519965505832193E-018
  3.360000000000000E-006   -9.883392269329299E-018
  3.380000000000000E-006   -3.209901375159901E-017
  3.400000000000000E-006   -3.733722425020608E-017
  3.420000000000000E-006   -1.096313897459774E-017
  3.440000000000001E-006    4.078141526152289E-017
  3.460000000000000E-006    8.307742586763871E-017
  3.480000000000000E-006    7.133147793870515E-017
  3.500000000000000E-006   -6.891237207829499E-018
  3.520000000000000E-006   -1.074752225559151E-016
  3.540000000000000E-006   -1.484301901117842E-016
  3.560000000000000E-006   -7.639866833874000E-017
  3.580000000000000E-006    5.410547899964414E-017
  3.600000000000000E-006    9.957799710258569E-017
  3.620000000000000E-006   -1.661995995663012E-017
  3.640000000000000E-006   -1.380146512005485E-016
  3.660000000000000E-006    1.113229833046605E-016
  3.680000000000000E-006    9.453240859150489E-016
  3.700000000000001E-006    1.791426748771976E-015
  3.720000000000000E-006    1.129994913921334E-015
  3.740000000000000E-006   -2.482035963836965E-015
  3.760000000000000E-006   -8.255474586191922E-015
  3.780000000000000E-006   -1.129936683507036E-014
  3.800000000000000E-006   -3.905587199024201E-015
  3.820000000000001E-006    1.800201750867056E-014
  3.840000000000001E-006    4.562318844130118E-014
  3.860000000000000E-006    5.303266798394296E-014
  3.880000000000000E-006    8.220884375340120E-015
  3.900000000000000E-006   -9.680077885554847E-014
  3.920000000000000E-006   -2.113512171887526E-013
  3.940000000000000E-006   -2.205287419971487E-013
  3.959999999999999E-006   -3.386029724390926E-015
  3.980000000000001E-006    4.440360481271154E-013
  4.000000000000001E-006    8.878242780926206E-013
  4.020000000000000E-006    8.659935224684245E-013
  4.040000000000000E-006   -5.874526920875164E-014
  4.060000000000000E-006   -1.832737680350997E-012
  4.080000000000000E-006   -3.501622830307481E-012
  4.100000000000000E-006   -3.316790996841128E-012
  4.120000000000000E-006    2.816681628357999E-013
  4.139999999999999E-006    6.979448035480461E-012
  4.160000000000001E-006    1.319786037517593E-011
  4.180000000000001E-006    1.258496278784435E-011
  4.200000000000000E-006   -4.414457635855416E-013
  4.220000000000000E-006   -2.479452562272792E-011
  4.240000000000000E-006   -4.792581881294063E-011
  4.260000000000000E-006   -4.748743578436213E-011
  4.280000000000000E-006   -3.355160354626012E-012
  4.299999999999999E-006    8.225535420729555E-011
  4.320000000000001E-006    1.679741829655630E-010
  4.340000000000001E-006    1.774665944949694E-010
  4.360000000000001E-006    3.802451281247857E-011
  4.380000000000000E-006   -2.525602909826781E-010
  4.400000000000000E-006   -5.665001678387452E-010
  4.420000000000000E-006   -6.512934063256406E-010
  4.440000000000000E-006   -2.464406581943553E-010
  4.460000000000000E-006    7.005995193777838E-010
  4.479999999999999E-006    1.824997412365978E-009
  4.500000000000001E-006    2.323039294570670E-009
  4.520000000000001E-006    1.280649103736693E-009
  4.540000000000001E-006   -1.653939926097171E-009
  4.560000000000000E-006   -5.547538379219340E-009
  4.580000000000000E-006   -7.963283319758148E-009
  4.600000000000000E-006   -5.798894272099866E-009
  4.620000000000000E-006    2.713203351039549E-009
  4.640000000000000E-006    1.559391290597847E-008
  4.659999999999999E-006    2.591254092970678E-008
  4.680000000000001E-006    2.361125862751526E-008
  4.700000000000001E-006    1.098894664718796E-009
  4.720000000000001E-006   -3.906107857658875E-008
  4.740000000000000E-006   -7.883112857428680E-008
  4.760000000000000E-006   -8.748201853211489E-008
  4.780000000000000E-006   -3.597378266520024E-008
  4.800000000000000E-006    7.995190788979120E-008
  4.820000000000000E-006    2.193370116482641E-007
  4.839999999999999E-006    2.952223764962804E-007
  4.860000000000001E-006    2.072540981610317E-007
  4.880000000000001E-006   -9.401590631571236E-008
  4.900000000000001E-006   -5.369806375160784E-007
  4.920000000000000E-006   -8.997096649647975E-007
  4.940000000000000E-006   -8.689016116759451E-007
  4.960000000000000E-006   -2.018107763689774E-007
  4.980000000000000E-006    1.057351801730981E-006
  5.000000000000000E-006    2.423177469259969E-006
  5.019999999999999E-006    3.022378302601553E-006
  5.040000000000001E-006    1.946184631093536E-006
  5.060000000000001E-006   -1.154921305243066E-006
  5.080000000000000E-006   -5.488276999311606E-006
  5.100000000000000E-006   -8.944250015987965E-006
  5.120000000000000E-006   -8.687175143015740E-006
  5.140000000000000E-006   -2.573860883735389E-006
  5.160000000000000E-006    9.041678188902613E-006
  5.180000000000000E-006    2.205646031211345E-005
  5.199999999999999E-006    2.903141805185421E-005
  5.220000000000001E-006    2.194208408133204E-005
  5.240000000000001E-006   -3.153550038265367E-006
  5.260000000000000E-006   -4.136256393620329E-005
  5.280000000000000E-006   -7.697694659373585E-005
  5.300000000000000E-006   -8.694346395074001E-005
  5.320000000000000E-006   -5.058545177632192E-005
  5.340000000000000E-006    3.690224067540474E-005
  5.360000000000000E-006    1.531058595261350E-004
  5.380000000000001E-006    2.468049064951785E-004
  5.400000000000001E-006    2.519203132947546E-004
  5.420000000000001E-006    1.168594101553358E-004
  5.440000000000000E-006   -1.594154608196575E-004
  5.460000000000000E-006   -5.009325327169451E-004
  5.480000000000000E-006   -7.565600475192571E-004
  5.500000000000000E-006   -7.424631822510149E-004
  5.520000000000000E-006   -3.220808096329605E-004
  5.539999999999999E-006    4.996955774634056E-004
  5.560000000000001E-006    1.508639611168010E-003
  5.580000000000001E-006    2.284873820981081E-003
  5.600000000000001E-006    2.308990540882501E-003
  5.620000000000000E-006    1.167263810562371E-003
  5.640000000000000E-006   -1.194208478826781E-003
  5.660000000000000E-006   -4.260732197839333E-003
  5.680000000000000E-006   -6.902692841133888E-003
  5.700000000000000E-006   -7.592003730463297E-003
  5.719999999999999E-006   -4.914926725832536E-003
  5.740000000000001E-006    1.698316662495605E-003
  5.760000000000001E-006    1.124419928794858E-002
  5.780000000000001E-006    2.075092796591359E-002
  5.800000000000000E-006    2.558660654842928E-002
  5.820000000000000E-006    2.072614677873799E-002
  5.840000000000000E-006    2.932651869252855E-003
  5.860000000000000E-006   -2.665416671709225E-002
  5.880000000000000E-006   -6.053090380711432E-002
  5.899999999999999E-006   -8.476679767345487E-002
  5.920000000000001E-006   -8.203161817545292E-002
  5.940000000000001E-006   -3.804609064088865E-002
  5.960000000000001E-006    4.972503375639181E-002
  5.980000000000000E-006    0.164128895123047     
  6.000000000000000E-006    0.265476725556504     
  6.020000000000000E-006    0.298065792798599     
  6.040000000000000E-006    0.208070199790354     
  6.060000000000000E-006   -2.972572480274549E-002
  6.079999999999999E-006   -0.384591623046180     
  6.100000000000001E-006   -0.754760588934401     
  6.120000000000001E-006   -0.978078671704786     
  6.140000000000001E-006   -0.876272447933089     
  6.160000000000000E-006   -0.328525202809412     
  6.180000000000000E-006    0.645816020759529     
  6.200000000000000E-006     1.82915022791537     
  6.220000000000000E-006     2.80962582576093     
  6.240000000000000E-006     3.07264230074660     
  6.260000000000001E-006     2.17640927052683     
  6.280000000000001E-006   -3.063359140707056E-002
  6.300000000000001E-006    -3.22768313287676     
  6.320000000000000E-006    -6.56528533618869     
  6.340000000000000E-006    -8.80377476098871     
  6.360000000000000E-006    -8.65639962460568     
  6.380000000000000E-006    -5.26475164996325     
  6.400000000000000E-006     1.34248322894611     
  6.420000000000000E-006     9.99178606036593     
  6.439999999999999E-006     18.4599938792522     
  6.459999999999999E-006     23.9699574138567     
  6.480000000000001E-006     23.9849488718348     
  6.500000000000000E-006     17.0603102939586     
  6.520000000000000E-006     3.44354398643125     
  6.540000000000000E-006    -14.8371009709750     
  6.560000000000000E-006    -34.4872763459893     
  6.580000000000000E-006    -51.9205481174575     
  6.599999999999999E-006    -64.3371555343268     
  6.619999999999999E-006    -70.4653179519977     
  6.639999999999999E-006    -70.6172997722141     
  6.660000000000001E-006    -65.9765002840404     
  6.680000000000000E-006    -57.3657837993889     
  6.700000000000000E-006    -43.9938580447333     
  6.720000000000000E-006    -22.7108183015284     
  6.740000000000000E-006     11.9441866022171     
  6.760000000000000E-006     67.0941392665582     
  6.779999999999999E-006     150.953893450928     
  6.799999999999999E-006     273.296464972104     
  6.819999999999999E-006     447.800126399738     
  6.840000000000001E-006     696.550931105679     
  6.860000000000000E-006     1056.13286195675     
  6.880000000000000E-006     1584.00953557527     
  6.900000000000000E-006     2363.51153428697     
  6.920000000000000E-006     3506.02813595116     
  6.940000000000000E-006     5149.98461820095     
  6.959999999999999E-006     7457.19936969364     
  6.979999999999999E-006     10608.0424809818     
  6.999999999999999E-006     14796.8922530403     
  7.020000000000001E-006     20228.2484272462     
  7.040000000000000E-006     27111.8254695486     
  7.060000000000000E-006     35653.5366424851     
  7.080000000000000E-006     46037.4239717341     
  7.100000000000000E-006     58394.7287923125     
  7.120000000000000E-006     72758.2692067502     
  7.139999999999999E-006     89003.8896595036     
  7.159999999999999E-006     106785.214597062     
  7.179999999999999E-006     125470.853520761     
  7.200000000000001E-006     144094.074887269     
  7.220000000000000E-006     161325.130431355     
  7.240000000000000E-006     175473.158117270     
  7.260000000000000E-006     184521.858786689     
  7.280000000000000E-006     186201.829474322     
  7.300000000000000E-006     178099.704416242     
  7.319999999999999E-006     157805.142106307     
  7.339999999999999E-006     123096.527111419     
  7.359999999999999E-006     72162.0038496982     
  7.380000000000000E-006     3848.39787533320     
  7.400000000000000E-006    -82076.4379790878     
  7.420000000000000E-006    -184671.227988444     
  7.440000000000000E-006    -301609.745890259     
  7.460000000000000E-006    -429044.169736065     
  7.480000000000000E-006    -561574.736206814     
  7.499999999999999E-006    -692352.942196678     
  7.519999999999999E-006    -813332.318327512     
  7.540000000000001E-006    -915666.797781025     
  7.560000000000000E-006    -990243.289403849     
  7.580000000000000E-006    -1028322.17408188     
  7.600000000000000E-006    -1022244.34915861     
  7.620000000000000E-006    -966149.462619537     
  7.640000000000000E-006    -856650.736500310     
  7.660000000000000E-006    -693396.014461871     
  7.679999999999999E-006    -479448.620312535     
  7.699999999999999E-006    -221431.749937499     
  7.720000000000001E-006     70605.4517347475     
  7.740000000000000E-006     383616.545524019     
  7.760000000000000E-006     702259.284755125     
  7.780000000000000E-006     1009833.17568788     
  7.800000000000000E-006     1289369.67644796     
  7.820000000000000E-006     1524779.09360211     
  7.839999999999999E-006     1701971.90761022     
  7.859999999999999E-006     1809860.49034317     
  7.879999999999999E-006     1841151.43415409     
  7.900000000000001E-006     1792898.82768242     
  7.920000000000000E-006     1666755.31628140     
  7.940000000000000E-006     1468909.10969548     
  7.960000000000000E-006     1209708.58107917     
  7.980000000000000E-006     902974.409480310     
  8.000000000000000E-006     565053.085259095     
  8.019999999999999E-006     213687.936560537     
  8.039999999999999E-006    -133214.462554240     
  8.059999999999999E-006    -458792.716985533     
  8.080000000000001E-006    -748293.319216404     
  8.100000000000000E-006    -989894.223246729     
  8.120000000000000E-006    -1175235.59912195     
  8.140000000000000E-006    -1299648.14738746     
  8.160000000000000E-006    -1362118.82271117     
  8.180000000000000E-006    -1365027.19436459     
  8.199999999999999E-006    -1313698.37545536     
  8.219999999999999E-006    -1215834.96751729     
  8.239999999999999E-006    -1080849.57507887     
  8.260000000000001E-006    -919117.077171873     
  8.280000000000000E-006    -741218.192561730     
  8.300000000000000E-006    -557249.848038284     
  8.320000000000000E-006    -376256.279229392     
  8.340000000000000E-006    -205830.798587266     
  8.360000000000000E-006    -51907.4462640225     
  8.379999999999999E-006     81267.2677900456     
  8.399999999999999E-006     191032.821119706     
  8.419999999999999E-006     276175.788220937     
  8.440000000000001E-006     336785.993932226     
  8.460000000000000E-006     374101.597078308     
  8.480000000000000E-006     390352.316043312     
  8.500000000000000E-006     388570.676596909     
  8.520000000000000E-006     372327.804833972     
  8.540000000000000E-006     345408.854290554     
  8.559999999999999E-006     311488.481583202     
  8.579999999999999E-006     273870.933448411     
  8.600000000000001E-006     235320.996992989     
  8.620000000000000E-006     197972.610089620     
  8.640000000000000E-006     163315.515546876     
  8.660000000000000E-006     132231.931579713     
  8.680000000000000E-006     105027.530299230     
  8.700000000000000E-006     81477.7427042087     
  8.720000000000000E-006     60953.6187235094     
  8.739999999999999E-006     42621.6847631867     
  8.759999999999999E-006     25675.8204245975     
  8.780000000000001E-006     9568.89009369514     
  8.800000000000000E-006    -5791.72602641679     
  8.820000000000000E-006    -19942.3822949479     
  8.840000000000000E-006    -31925.5127785667     
  8.860000000000000E-006    -40508.6335338919     
  8.880000000000000E-006    -44473.6092971064     
  8.899999999999999E-006    -42942.7370447354     
  8.919999999999999E-006    -35718.9960476938     
  8.939999999999999E-006    -23526.4301746349     
  8.960000000000001E-006    -8051.73374521465     
  8.980000000000000E-006     8220.44945597123     
  9.000000000000000E-006     22351.6006953598     
  9.020000000000000E-006     31437.7554525731     
  9.040000000000000E-006     33185.3666929762     
  9.060000000000000E-006     26447.8367509736     
  9.079999999999999E-006     11559.0518790118     
  9.099999999999999E-006    -9597.54656966759     
  9.119999999999999E-006    -33778.7726219074     
  9.140000000000001E-006    -56845.6111545755     
  9.160000000000000E-006    -74428.3949892612     
  9.180000000000000E-006    -82631.6210704518     
  9.200000000000000E-006    -78683.9562993443     
  9.220000000000000E-006    -61495.0562746877     
  9.240000000000000E-006    -32062.8726360670     
  9.259999999999999E-006     6356.19856870454     
  9.279999999999999E-006     48424.7008918985     
  9.299999999999999E-006     87317.6241384803     
  9.320000000000001E-006     115748.290639908     
  9.340000000000000E-006     127362.842823908     
  9.360000000000000E-006     118190.955304742     
  9.380000000000000E-006     87683.1532713023     
  9.400000000000000E-006     39051.8111830395     
  9.420000000000000E-006    -21122.7855195470     
  9.439999999999999E-006    -83916.7326224502     
  9.459999999999999E-006    -139460.173810242     
  9.479999999999999E-006    -178396.435995866     
  9.500000000000001E-006    -193194.174717747     
  9.520000000000000E-006    -179267.317686203     
  9.540000000000000E-006    -135931.533516560     
  9.560000000000000E-006    -67044.6832791953     
  9.580000000000000E-006     19010.8511961695     
  9.600000000000000E-006     110189.452076075     
  9.619999999999999E-006     192423.724263978     
  9.639999999999999E-006     251846.121513034     
  9.660000000000001E-006     277192.236750483     
  9.680000000000000E-006     261858.748821873     
  9.700000000000000E-006     205206.148125097     
  9.720000000000000E-006     112920.625244426     
  9.740000000000000E-006    -3545.51256512516     
  9.760000000000000E-006    -128363.395108780     
  9.780000000000000E-006    -243456.561129822     
  9.799999999999999E-006    -331098.170416476     
  9.819999999999999E-006    -376533.159842950     
  9.840000000000001E-006    -370264.954275698     
  9.860000000000000E-006    -309721.208685927     
  9.880000000000000E-006    -200038.532600076     
  9.900000000000000E-006    -53818.1340310854     
  9.920000000000000E-006     110197.619794650     
  9.940000000000000E-006     269459.193290081     
  9.960000000000000E-006     400703.385374590     
  9.979999999999999E-006     483414.625968045     
  9.999999999999999E-006     503084.939785393     
  1.002000000000000E-005     453590.230165691     
  1.004000000000000E-005     338254.812356225     
  1.006000000000000E-005     169568.913563641     
  1.008000000000000E-005    -32247.3394827168     
  1.010000000000000E-005    -241560.036035364     
  1.012000000000000E-005    -430323.479076187     
  1.014000000000000E-005    -571618.972913208     
  1.016000000000000E-005    -643413.667745350     
  1.018000000000000E-005    -632040.857645043     
  1.020000000000000E-005    -534785.129236821     
  1.022000000000000E-005    -360887.138129862     
  1.024000000000000E-005    -130571.661419250     
  1.026000000000000E-005     127699.423583553     
  1.028000000000000E-005     381089.541242739     
  1.030000000000000E-005     596595.237388116     
  1.032000000000000E-005     745046.118419342     
  1.034000000000000E-005     804632.075997589     
  1.036000000000000E-005     763772.741617822     
  1.038000000000000E-005     623083.037403884     
  1.040000000000000E-005     396105.295548375     
  1.042000000000000E-005     108363.639324886     
  1.044000000000000E-005    -205521.679390264     
  1.046000000000000E-005    -506329.168218329     
  1.048000000000000E-005    -755472.023940677     
  1.050000000000000E-005    -920007.842052558     
  1.052000000000000E-005    -976721.358248460     
  1.054000000000000E-005    -914954.200211640     