 -1.200000000000000E-006    0.000000000000000E+000
 -1.180000000000000E-006    0.000000000000000E+000
 -1.160000000000000E-006    0.000000000000000E+000
 -1.140000000000000E-006    0.000000000000000E+000
 -1.120000000000000E-006    0.000000000000000E+000
 -1.100000000000000E-006    0.000000000000000E+000
 -1.080000000000000E-006    0.000000000000000E+000
 -1.060000000000000E-006    0.000000000000000E+000
 -1.040000000000000E-006    0.000000000000000E+000
 -1.020000000000000E-006    0.000000000000000E+000
 -1.000000000000000E-006    0.000000000000000E+000
 -9.799999999999999E-007    0.000000000000000E+000
 -9.599999999999999E-007    0.000000000000000E+000
 -9.399999999999999E-007    0.000000000000000E+000
 -9.199999999999999E-007    0.000000000000000E+000
 -9.000000000000000E-007    0.000000000000000E+000
 -8.799999999999999E-007    0.000000000000000E+000
 -8.599999999999999E-007    0.000000000000000E+000
 -8.400000000000000E-007    0.000000000000000E+000
 -8.200000000000000E-007    0.000000000000000E+000
 -8.000000000000000E-007    0.000000000000000E+000
 -7.799999999999999E-007    0.000000000000000E+000
 -7.599999999999999E-007    0.000000000000000E+000
 -7.399999999999999E-007    0.000000000000000E+000
 -7.199999999999999E-007    0.000000000000000E+000
 -7.000000000000000E-007    0.000000000000000E+000
 -6.799999999999999E-007    0.000000000000000E+000
 -6.599999999999999E-007    0.000000000000000E+000
 -6.399999999999999E-007    0.000000000000000E+000
 -6.199999999999999E-007    0.000000000000000E+000
 -6.000000000000000E-007    0.000000000000000E+000
 -5.800000000000000E-007    0.000000000000000E+000
 -5.599999999999999E-007    0.000000000000000E+000
 -5.399999999999999E-007    0.000000000000000E+000
 -5.199999999999999E-007    0.000000000000000E+000
 -5.000000000000000E-007    0.000000000000000E+000
 -4.800000000000000E-007    0.000000000000000E+000
 -4.599999999999999E-007    0.000000000000000E+000
 -4.399999999999999E-007    0.000000000000000E+000
 -4.199999999999999E-007    0.000000000000000E+000
 -4.000000000000000E-007    0.000000000000000E+000
 -3.800000000000000E-007    0.000000000000000E+000
 -3.599999999999999E-007    0.000000000000000E+000
 -3.399999999999999E-007    0.000000000000000E+000
 -3.199999999999999E-007    0.000000000000000E+000
 -2.999999999999999E-007    0.000000000000000E+000
 -2.800000000000000E-007    0.000000000000000E+000
 -2.599999999999999E-007    0.000000000000000E+000
 -2.399999999999998E-007    0.000000000000000E+000
 -2.200000000000000E-007    0.000000000000000E+000
 -2.000000000000000E-007    0.000000000000000E+000
 -1.800000000000000E-007    0.000000000000000E+000
 -1.600000000000000E-007    0.000000000000000E+000
 -1.399999999999999E-007    0.000000000000000E+000
 -1.199999999999999E-007    0.000000000000000E+000
 -9.999999999999989E-008    0.000000000000000E+000
 -7.999999999999987E-008    0.000000000000000E+000
 -5.999999999999985E-008    0.000000000000000E+000
 -3.999999999999983E-008    0.000000000000000E+000
 -2.000000000000002E-008    0.000000000000000E+000
  0.000000000000000E+000    0.000000000000000E+000
  2.000000000000002E-008    0.000000000000000E+000
  4.000000000000004E-008    0.000000000000000E+000
  6.000000000000006E-008    0.000000000000000E+000
  8.000000000000008E-008    0.000000000000000E+000
  1.000000000000001E-007    0.000000000000000E+000
  1.200000000000001E-007    0.000000000000000E+000
  1.400000000000001E-007    0.000000000000000E+000
  1.600000000000002E-007    0.000000000000000E+000
  1.800000000000002E-007    0.000000000000000E+000
  2.000000000000000E-007    0.000000000000000E+000
  2.200000000000000E-007    0.000000000000000E+000
  2.400000000000000E-007    0.000000000000000E+000
  2.600000000000001E-007    0.000000000000000E+000
  2.800000000000001E-007    0.000000000000000E+000
  3.000000000000001E-007    0.000000000000000E+000
  3.200000000000001E-007    0.000000000000000E+000
  3.400000000000001E-007    0.000000000000000E+000
  3.600000000000002E-007    0.000000000000000E+000
  3.800000000000002E-007    0.000000000000000E+000
  4.000000000000000E-007    0.000000000000000E+000
  4.200000000000000E-007    0.000000000000000E+000
  4.400000000000000E-007    0.000000000000000E+000
  4.600000000000000E-007    0.000000000000000E+000
  4.800000000000001E-007    0.000000000000000E+000
  5.000000000000001E-007    0.000000000000000E+000
  5.200000000000001E-007    0.000000000000000E+000
  5.400000000000001E-007    0.000000000000000E+000
  5.600000000000001E-007    0.000000000000000E+000
  5.800000000000002E-007    0.000000000000000E+000
  6.000000000000002E-007    0.000000000000000E+000
  6.200000000000000E-007    0.000000000000000E+000
  6.400000000000000E-007    0.000000000000000E+000
  6.600000000000000E-007    0.000000000000000E+000
  6.800000000000001E-007    0.000000000000000E+000
  7.000000000000001E-007    0.000000000000000E+000
  7.200000000000003E-007    0.000000000000000E+000
  7.400000000000001E-007    0.000000000000000E+000
  7.599999999999999E-007    0.000000000000000E+000
  7.800000000000002E-007    0.000000000000000E+000
  8.000000000000000E-007    0.000000000000000E+000
  8.200000000000002E-007    0.000000000000000E+000
  8.400000000000000E-007    0.000000000000000E+000
  8.600000000000002E-007    0.000000000000000E+000
  8.800000000000000E-007    0.000000000000000E+000
  9.000000000000003E-007    0.000000000000000E+000
  9.200000000000001E-007    0.000000000000000E+000
  9.399999999999999E-007    0.000000000000000E+000
  9.600000000000001E-007    0.000000000000000E+000
  9.799999999999999E-007    0.000000000000000E+000
  1.000000000000000E-006    0.000000000000000E+000
  1.020000000000000E-006    0.000000000000000E+000
  1.040000000000000E-006    0.000000000000000E+000
  1.060000000000000E-006    0.000000000000000E+000
  1.080000000000000E-006    0.000000000000000E+000
  1.100000000000000E-006    0.000000000000000E+000
  1.120000000000000E-006    0.000000000000000E+000
  1.140000000000000E-006    0.000000000000000E+000
  1.160000000000000E-006    0.000000000000000E+000
  1.180000000000000E-006    0.000000000000000E+000
  1.200000000000000E-006    0.000000000000000E+000
  1.220000000000000E-006    0.000000000000000E+000
  1.240000000000000E-006    0.000000000000000E+000
  1.260000000000000E-006    0.000000000000000E+000
  1.280000000000000E-006    0.000000000000000E+000
  1.300000000000000E-006    0.000000000000000E+000
  1.320000000000000E-006    0.000000000000000E+000
  1.340000000000000E-006    0.000000000000000E+000
  1.360000000000000E-006    0.000000000000000E+000
  1.380000000000000E-006    0.000000000000000E+000
  1.400000000000000E-006    0.000000000000000E+000
  1.420000000000000E-006    0.000000000000000E+000
  1.440000000000000E-006    0.000000000000000E+000
  1.460000000000000E-006    0.000000000000000E+000
  1.480000000000000E-006    0.000000000000000E+000
  1.500000000000000E-006    0.000000000000000E+000
  1.520000000000000E-006    0.000000000000000E+000
  1.540000000000000E-006    0.000000000000000E+000
  1.560000000000000E-006    0.000000000000000E+000
  1.580000000000000E-006    0.000000000000000E+000
  1.600000000000000E-006    0.000000000000000E+000
  1.620000000000000E-006    0.000000000000000E+000
  1.640000000000000E-006    0.000000000000000E+000
  1.660000000000000E-006    0.000000000000000E+000
  1.680000000000000E-006    0.000000000000000E+000
  1.700000000000000E-006    0.000000000000000E+000
  1.720000000000000E-006    0.000000000000000E+000
  1.740000000000000E-006    0.000000000000000E+000
  1.760000000000000E-006    0.000000000000000E+000
  1.780000000000000E-006    0.000000000000000E+000
  1.800000000000000E-006    0.000000000000000E+000
  1.820000000000000E-006    0.000000000000000E+000
  1.840000000000000E-006    0.000000000000000E+000
  1.860000000000000E-006    0.000000000000000E+000
  1.880000000000000E-006    0.000000000000000E+000
  1.900000000000000E-006    0.000000000000000E+000
  1.920000000000000E-006    0.000000000000000E+000
  1.940000000000000E-006    0.000000000000000E+000
  1.960000000000000E-006    0.000000000000000E+000
  1.980000000000000E-006    0.000000000000000E+000
  2.000000000000000E-006    0.000000000000000E+000
  2.020000000000000E-006    0.000000000000000E+000
  2.040000000000000E-006    0.000000000000000E+000
  2.060000000000000E-006    0.000000000000000E+000
  2.080000000000000E-006    0.000000000000000E+000
  2.100000000000000E-006    0.000000000000000E+000
  2.120000000000000E-006    0.000000000000000E+000
  2.140000000000000E-006    0.000000000000000E+000
  2.160000000000000E-006    0.000000000000000E+000
  2.180000000000000E-006    0.000000000000000E+000
  2.200000000000000E-006    0.000000000000000E+000
  2.220000000000000E-006    0.000000000000000E+000
  2.240000000000000E-006    0.000000000000000E+000
  2.260000000000000E-006    0.000000000000000E+000
  2.280000000000000E-006    0.000000000000000E+000
  2.300000000000000E-006    0.000000000000000E+000
  2.320000000000000E-006    0.000000000000000E+000
  2.340000000000000E-006    0.000000000000000E+000
  2.360000000000000E-006    0.000000000000000E+000
  2.380000000000000E-006    0.000000000000000E+000
  2.400000000000000E-006    0.000000000000000E+000
  2.420000000000000E-006    0.000000000000000E+000
  2.440000000000000E-006    0.000000000000000E+000
  2.460000000000000E-006    0.000000000000000E+000
  2.480000000000000E-006    0.000000000000000E+000
  2.500000000000000E-006    0.000000000000000E+000
  2.520000000000000E-006    0.000000000000000E+000
  2.540000000000000E-006    0.000000000000000E+000
  2.560000000000000E-006    0.000000000000000E+000
  2.580000000000000E-006    0.000000000000000E+000
  2.600000000000000E-006    0.000000000000000E+000
  2.620000000000000E-006    0.000000000000000E+000
  2.640000000000001E-006    0.000000000000000E+000
  2.660000000000000E-006    0.000000000000000E+000
  2.680000000000000E-006    0.000000000000000E+000
  2.700000000000000E-006    0.000000000000000E+000
  2.720000000000000E-006    0.000000000000000E+000
  2.740000000000000E-006    0.000000000000000E+000
  2.760000000000000E-006    0.000000000000000E+000
  2.780000000000000E-006    0.000000000000000E+000
  2.800000000000000E-006    0.000000000000000E+000
  2.820000000000001E-006    0.000000000000000E+000
  2.840000000000000E-006    0.000000000000000E+000
  2.860000000000000E-006    0.000000000000000E+000
  2.880000000000000E-006    0.000000000000000E+000
  2.900000000000000E-006    0.000000000000000E+000
  2.920000000000000E-006    0.000000000000000E+000
  2.940000000000000E-006    0.000000000000000E+000
  2.960000000000000E-006    0.000000000000000E+000
  2.980000000000000E-006    0.000000000000000E+000
  3.000000000000000E-006    0.000000000000000E+000
  3.020000000000000E-006    0.000000000000000E+000
  3.040000000000000E-006    0.000000000000000E+000
  3.060000000000000E-006    0.000000000000000E+000
  3.080000000000000E-006    0.000000000000000E+000
  3.100000000000000E-006    0.000000000000000E+000
  3.120000000000000E-006    0.000000000000000E+000
  3.140000000000000E-006    0.000000000000000E+000
  3.160000000000000E-006    0.000000000000000E+000
  3.180000000000000E-006    0.000000000000000E+000
  3.200000000000000E-006    0.000000000000000E+000
  3.220000000000000E-006    0.000000000000000E+000
  3.240000000000000E-006    0.000000000000000E+000
  3.260000000000001E-006    0.000000000000000E+000
  3.280000000000000E-006    0.000000000000000E+000
  3.300000000000000E-006    0.000000000000000E+000
  3.320000000000000E-006    0.000000000000000E+000
  3.340000000000000E-006    0.000000000000000E+000
  3.360000000000000E-006    0.000000000000000E+000
  3.380000000000000E-006    0.000000000000000E+000
  3.400000000000000E-006    0.000000000000000E+000
  3.420000000000000E-006    0.000000000000000E+000
  3.440000000000001E-006    0.000000000000000E+000
  3.460000000000000E-006    0.000000000000000E+000
  3.480000000000000E-006    0.000000000000000E+000
  3.500000000000000E-006    0.000000000000000E+000
  3.520000000000000E-006    0.000000000000000E+000
  3.540000000000000E-006    0.000000000000000E+000
  3.560000000000000E-006    0.000000000000000E+000
  3.580000000000000E-006    0.000000000000000E+000
  3.600000000000000E-006    0.000000000000000E+000
  3.620000000000000E-006    0.000000000000000E+000
  3.640000000000000E-006    0.000000000000000E+000
  3.660000000000000E-006    0.000000000000000E+000
  3.680000000000000E-006    0.000000000000000E+000
  3.700000000000001E-006    0.000000000000000E+000
  3.720000000000000E-006    0.000000000000000E+000
  3.740000000000000E-006    5.570620146485024E-039
  3.760000000000000E-006    1.753906220698905E-039
  3.780000000000000E-006   -6.865194221037674E-039
  3.800000000000000E-006    2.758185879183767E-039
  3.820000000000001E-006   -1.766077922735807E-039
  3.840000000000001E-006   -1.054886946267499E-039
  3.860000000000000E-006    3.462163772931253E-038
  3.880000000000000E-006   -6.270101612184037E-038
  3.900000000000000E-006    6.867978486537696E-038
  3.920000000000000E-006    8.989102500221296E-038
  3.940000000000000E-006   -2.396243834563378E-037
  3.959999999999999E-006    4.883856710882087E-037
  3.980000000000001E-006    3.581481756122458E-037
  4.000000000000001E-006   -1.845546631267607E-038
  4.020000000000000E-006    2.335075838646453E-036
  4.040000000000000E-006   -1.702638932408325E-036
  4.060000000000000E-006   -2.532890500313948E-036
  4.080000000000000E-006    6.099294158415663E-036
  4.100000000000000E-006   -1.592516202059324E-036
  4.120000000000000E-006   -3.529588937351240E-036
  4.139999999999999E-006    1.026751427222344E-035
  4.160000000000001E-006   -8.037449369674873E-036
  4.180000000000001E-006   -2.848519435526873E-036
  4.200000000000000E-006    2.576844323170522E-035
  4.220000000000000E-006   -1.789981666031621E-035
  4.240000000000000E-006   -1.127483894754522E-035
  4.260000000000000E-006    2.381180247782731E-035
  4.280000000000000E-006   -6.690263352109425E-035
  4.299999999999999E-006    6.604624525707614E-036
  4.320000000000001E-006    1.428587184424675E-034
  4.340000000000001E-006   -3.585098809073945E-035
  4.360000000000001E-006   -2.992631990628618E-035
  4.380000000000000E-006   -3.884581058294510E-035
  4.400000000000000E-006   -4.327922897272733E-034
  4.420000000000000E-006    1.158526576281834E-034
  4.440000000000000E-006    9.051281181408310E-034
  4.460000000000000E-006    3.786862914608596E-034
  4.479999999999999E-006    4.836310429455672E-035
  4.500000000000001E-006   -1.358955405126581E-033
  4.520000000000001E-006   -3.762945910815799E-033
  4.540000000000001E-006   -4.491670214801426E-034
  4.560000000000000E-006    5.933092536060738E-033
  4.580000000000000E-006    8.467297069366582E-033
  4.600000000000000E-006    6.886510619291841E-033
  4.620000000000000E-006   -9.870859680479077E-033
  4.640000000000000E-006   -3.536660766464429E-032
  4.659999999999999E-006   -2.896316319442390E-032
  4.680000000000001E-006    1.838046223897953E-032
  4.700000000000001E-006    8.676383306713124E-032
  4.720000000000001E-006    1.288320275564753E-031
  4.740000000000000E-006    2.429089221897294E-032
  4.760000000000000E-006   -2.363122961983528E-031
  4.780000000000000E-006   -4.264053197717645E-031
  4.800000000000000E-006   -2.779002645997108E-031
  4.820000000000000E-006    3.931286515709893E-031
  4.839999999999999E-006    1.318979489894425E-030
  4.860000000000001E-006    1.430084387652240E-030
  4.880000000000001E-006   -2.262357503276731E-031
  4.900000000000001E-006   -3.241009212769824E-030
  4.920000000000000E-006   -5.341989662014659E-030
  4.940000000000000E-006   -2.755800581002920E-030
  4.960000000000000E-006    6.221278399569031E-030
  4.980000000000000E-006    1.638836893218020E-029
  5.000000000000000E-006    1.635705421345616E-029
  5.019999999999999E-006   -4.052531566837829E-030
  5.040000000000001E-006   -4.070977518361375E-029
  5.060000000000001E-006   -6.398226277468828E-029
  5.080000000000000E-006   -3.127299992630992E-029
  5.100000000000000E-006    7.244497972956729E-029
  5.120000000000000E-006    1.923395780355620E-028
  5.140000000000000E-006    1.987628715285039E-028
  5.160000000000000E-006   -3.064960337322133E-029
  5.180000000000000E-006   -4.511196856944357E-028
  5.199999999999999E-006   -7.467694560377119E-028
  5.220000000000001E-006   -4.448033780891243E-028
  5.240000000000001E-006    6.845809434798491E-028
  5.260000000000000E-006    2.113627577382032E-027
  5.280000000000000E-006    2.449921275903053E-027
  5.300000000000000E-006    2.490169993151531E-028
  5.320000000000000E-006   -4.374953359241977E-027
  5.340000000000000E-006   -8.400672321352577E-027
  5.360000000000000E-006   -6.609875239763552E-027
  5.380000000000001E-006    4.479234230968697E-027
  5.400000000000001E-006    2.103424115405676E-026
  5.420000000000001E-006    2.945252356464894E-026
  5.440000000000000E-006    1.256135402847408E-026
  5.460000000000000E-006   -3.440475363419788E-026
  5.480000000000000E-006   -8.701341106871990E-026
  5.500000000000000E-006   -9.201822442886634E-026
  5.520000000000000E-006    2.427101450281821E-028
  5.539999999999999E-006    1.780245002229545E-025
  5.560000000000001E-006    3.251347314685543E-025
  5.580000000000001E-006    2.530112062358758E-025
  5.600000000000001E-006   -1.602487674403113E-025
  5.620000000000000E-006   -7.788199136550407E-025
  5.640000000000000E-006   -1.124047879094868E-024
  5.660000000000000E-006   -5.797374476754101E-025
  5.680000000000000E-006    1.075304331199643E-024
  5.700000000000000E-006    3.084346929506415E-024
  5.719999999999999E-006    3.646452595654769E-024
  5.740000000000001E-006    8.838218790080697E-025
  5.760000000000001E-006   -5.269315830610190E-024
  5.780000000000001E-006   -1.141901885417344E-023
  5.800000000000000E-006   -1.120694285430264E-023
  5.820000000000000E-006    7.309314589813335E-025
  5.840000000000000E-006    2.242912042520772E-023
  5.860000000000000E-006    4.029343023148984E-023
  5.880000000000000E-006    3.289473314603878E-023
  5.899999999999999E-006   -1.415446598430938E-023
  5.920000000000001E-006   -8.781718415312822E-023
  5.940000000000001E-006   -1.374059767291963E-022
  5.960000000000001E-006   -9.307103222653785E-023
  5.980000000000000E-006    8.142951917292962E-023
  6.000000000000000E-006    3.250630076463078E-022
  6.020000000000000E-006    4.579873189237929E-022
  6.040000000000000E-006    2.574725394194785E-022
  6.060000000000000E-006   -3.624805570799203E-022
  6.079999999999999E-006   -1.155832701866283E-021
  6.100000000000001E-006   -1.506967184730500E-021
  6.120000000000001E-006   -7.134876256715002E-022
  6.140000000000001E-006    1.420444200756468E-021
  6.160000000000000E-006    3.988620014349281E-021
  6.180000000000000E-006    4.938578887939174E-021
  6.200000000000000E-006    2.056415797149931E-021
  6.220000000000000E-006   -5.115160065191376E-021
  6.240000000000000E-006   -1.344975350878716E-020
  6.260000000000001E-006   -1.623740206151571E-020
  6.280000000000001E-006   -6.437929033797116E-021
  6.300000000000001E-006    1.721333604773561E-020
  6.320000000000000E-006    4.450234594961684E-020
  6.340000000000000E-006    5.382280028329439E-020
  6.360000000000000E-006    2.243559932156723E-020
  6.380000000000000E-006   -5.431009086195862E-020
  6.400000000000000E-006   -1.447343530657855E-019
  6.420000000000000E-006   -1.801623695192327E-019
  6.439999999999999E-006   -8.581751098320765E-020
  6.459999999999999E-006    1.592419596294590E-019
  6.480000000000001E-006    4.622591368951790E-019
  6.500000000000000E-006    6.078650148346267E-019
  6.520000000000000E-006    3.462916798075603E-019
  6.540000000000000E-006   -4.216810509790512E-019
  6.560000000000000E-006   -1.444195160291625E-018
  6.580000000000000E-006   -2.057063966027568E-018
  6.599999999999999E-006   -1.418333420869750E-018
  6.619999999999999E-006    9.292970315367901E-019
  6.639999999999999E-006    4.379400038277099E-018
  6.660000000000001E-006    6.931724340243174E-018
  6.680000000000000E-006    5.747690700675243E-018
  6.700000000000000E-006   -1.177487936812646E-018
  6.720000000000000E-006   -1.271637333704439E-017
  6.740000000000000E-006   -2.305544253624800E-017
  6.760000000000000E-006   -2.271984665243484E-017
  6.779999999999999E-006   -3.372140482975457E-018
  6.799999999999999E-006    3.450368014105194E-017
  6.819999999999999E-006    7.492689680068579E-017
  6.840000000000001E-006    8.692130554648975E-017
  6.860000000000000E-006    3.752295780507810E-017
  6.880000000000000E-006   -8.312705193745268E-017
  6.900000000000000E-006   -2.350442376044605E-016
  6.920000000000000E-006   -3.201930468300190E-016
  6.940000000000000E-006   -2.144547014628292E-016
  6.959999999999999E-006    1.532808117229238E-016
  6.979999999999999E-006    7.001760754311978E-016
  6.999999999999999E-006    1.130165959761890E-015
  7.020000000000001E-006    9.982171741490668E-016
  7.040000000000000E-006   -5.245793742250432E-017
  7.060000000000000E-006   -1.929769888135664E-015
  7.080000000000000E-006   -3.798300376225806E-015
  7.100000000000000E-006   -4.142564967440917E-015
  7.120000000000000E-006   -1.429805957133130E-015
  7.139999999999999E-006    4.670921730358841E-015
  7.159999999999999E-006    1.203966986420907E-014
  7.179999999999999E-006    1.580490709467647E-014
  7.200000000000001E-006    1.000327538873590E-014
  7.220000000000000E-006   -8.540485121000359E-015
  7.240000000000000E-006   -3.541934401509765E-014
  7.260000000000000E-006   -5.602232345800619E-014
  7.280000000000000E-006   -4.891516029885764E-014
  7.300000000000000E-006    2.658371767857649E-015
  7.319999999999999E-006    9.378825945199963E-014
  7.339999999999999E-006    1.844804395758063E-013
  7.359999999999999E-006    2.031976485058192E-013
  7.380000000000000E-006    7.792906250938976E-014
  7.400000000000000E-006   -2.079406898193699E-013
  7.420000000000000E-006   -5.591804650246282E-013
  7.440000000000000E-006   -7.551012954468938E-013
  7.460000000000000E-006   -5.224689278053007E-013
  7.480000000000000E-006    2.947364544266138E-013
  7.499999999999999E-006    1.525026187504134E-012
  7.519999999999999E-006    2.548768968231387E-012
  7.540000000000001E-006    2.427308390572775E-012
  7.560000000000000E-006    3.722763121154632E-013
  7.580000000000000E-006   -3.544491660952826E-012
  7.600000000000000E-006   -7.795755262639354E-012
  7.620000000000000E-006   -9.450587107132412E-012
  7.640000000000000E-006   -5.313053107664821E-012
  7.660000000000000E-006    5.898846597902978E-012
  7.679999999999999E-006    2.118679350047969E-011
  7.699999999999999E-006    3.232754089162483E-011
  7.720000000000001E-006    2.807482255824538E-011
  7.740000000000000E-006    1.682160007534214E-013
  7.760000000000000E-006   -4.849192148432515E-011
  7.780000000000000E-006   -9.787800477816825E-011
  7.800000000000000E-006   -1.129490212502423E-010
  7.820000000000000E-006   -5.803549287059492E-011
  7.839999999999999E-006    7.815162157919283E-011
  7.859999999999999E-006    2.572311185862062E-010
  7.879999999999999E-006    3.832728460479269E-010
  7.900000000000001E-006    3.299151890584648E-010
  7.920000000000000E-006    7.571145470976518E-012
  7.940000000000000E-006   -5.486512939777185E-010
  7.960000000000000E-006   -1.117149516526566E-009
  7.980000000000000E-006   -1.314446897310737E-009
  8.000000000000000E-006   -7.475353530577946E-010
  8.019999999999999E-006    7.244459149460579E-010
  8.039999999999999E-006    2.723957037087123E-009
  8.059999999999999E-006    4.260931229887475E-009
  8.080000000000001E-006    3.987434013460704E-009
  8.100000000000000E-006    8.596598775625355E-010
  8.120000000000000E-006   -4.966816860464570E-009
  8.140000000000000E-006   -1.144858587525036E-008
  8.160000000000000E-006   -1.475832336042012E-008
  8.180000000000000E-006   -1.062147658854670E-008
  8.199999999999999E-006    3.195570293481699E-009
  8.219999999999999E-006    2.412202686834866E-008
  8.239999999999999E-006    4.334425519577257E-008
  8.260000000000001E-006    4.744295715978853E-008
  8.280000000000000E-006    2.398881066128024E-008
  8.300000000000000E-006   -2.997517495973020E-008
  8.320000000000000E-006   -1.000996838449770E-007
  8.340000000000000E-006   -1.528275237183745E-007
  8.360000000000000E-006   -1.442362140341177E-007
  8.379999999999999E-006   -4.071758077869853E-008
  8.399999999999999E-006    1.540005448575893E-007
  8.419999999999999E-006    3.781187515395412E-007
  8.440000000000001E-006    5.136433597046930E-007
  8.460000000000000E-006    4.232587242528245E-007
  8.480000000000000E-006    2.095043852521748E-008
  8.500000000000000E-006   -6.456183341699411E-007
  8.520000000000000E-006   -1.342739622763426E-006
  8.540000000000000E-006   -1.676687366013550E-006
  8.559999999999999E-006   -1.228769625409164E-006
  8.579999999999999E-006    2.155233065625615E-007
  8.600000000000001E-006    2.420955081623894E-006
  8.620000000000000E-006    4.572013987788810E-006
  8.640000000000000E-006    5.398134053238319E-006
  8.660000000000000E-006    3.630366359963785E-006
  8.680000000000000E-006   -1.278526464747880E-006
  8.700000000000000E-006   -8.424497010811438E-006
  8.720000000000000E-006   -1.511482596033295E-005
  8.739999999999999E-006   -1.733237482109389E-005
  8.759999999999999E-006   -1.119804090964862E-005
  8.780000000000001E-006    4.809426221254370E-006
  8.800000000000000E-006    2.766376470353391E-005
  8.820000000000000E-006    4.883911625058221E-005
  8.840000000000000E-006    5.580171008329882E-005
  8.860000000000000E-006    3.650413476885646E-005
  8.880000000000000E-006   -1.385736901564734E-005
  8.899999999999999E-006   -8.617275293177933E-005
  8.919999999999999E-006   -1.544227038716340E-004
  8.939999999999999E-006   -1.799666964466192E-004
  8.960000000000001E-006   -1.248577412010755E-004
  8.980000000000000E-006    2.784417732532105E-005
  9.000000000000000E-006    2.535329671222244E-004
  9.020000000000000E-006    4.758276210131139E-004
  9.040000000000000E-006    5.775221563324093E-004
  9.060000000000000E-006    4.385076494519936E-004
  9.079999999999999E-006   -4.255685110583166E-006
  9.099999999999999E-006   -6.935064335982644E-004
  9.119999999999999E-006   -1.415527158884634E-003
  9.140000000000001E-006   -1.823660016899279E-003
  9.160000000000000E-006   -1.541082583902764E-003
  9.180000000000000E-006   -3.329346794583910E-004
  9.200000000000000E-006    1.701777447593374E-003
  9.220000000000000E-006    4.003262223694438E-003
  9.240000000000000E-006    5.584848662169462E-003
  9.259999999999999E-006    5.292966049059393E-003
  9.279999999999999E-006    2.280891153871981E-003
  9.299999999999999E-006   -3.425948699318717E-003
  9.320000000000001E-006   -1.049957826969308E-002
  9.340000000000000E-006   -1.628609775450472E-002
  9.360000000000000E-006   -1.739888996347004E-002
  9.380000000000000E-006   -1.094595517367004E-002
  9.400000000000000E-006    3.880687941483985E-003
  9.420000000000000E-006    2.442185507708709E-002
  9.439999999999999E-006    4.410930655649659E-002
  9.459999999999999E-006    5.360118755667519E-002
  9.479999999999999E-006    4.369706402363838E-002
  9.500000000000001E-006    9.518359779992103E-003
  9.520000000000000E-006   -4.535266468311540E-002
  9.540000000000000E-006   -0.106626284931744     
  9.560000000000000E-006   -0.150750160252886     
  9.580000000000000E-006   -0.150979957619458     
  9.600000000000000E-006   -8.738948461762355E-002
  9.619999999999999E-006    4.182910154786479E-002
  9.639999999999999E-006    0.212015226019458     
  9.660000000000001E-006    0.371276430417208     
  9.680000000000000E-006    0.450553023737112     
  9.700000000000000E-006    0.384507376219586     
  9.720000000000000E-006    0.138850885165725     
  9.740000000000000E-006   -0.264387065608631     
  9.760000000000000E-006   -0.734236299448345     
  9.780000000000000E-006    -1.11999081726255     
  9.799999999999999E-006    -1.24600812525326     
  9.819999999999999E-006   -0.967381906349131     
  9.840000000000001E-006   -0.232613591209718     
  9.860000000000000E-006    0.867175055775309     
  9.880000000000000E-006     2.08377653925395     
  9.900000000000000E-006     3.04689435905137     
  9.920000000000000E-006     3.34998682322882     
  9.940000000000000E-006     2.67153852411770     
  9.960000000000000E-006    0.901153116177677     
  9.979999999999999E-006    -1.76818341216482     
  9.999999999999999E-006    -4.81737980334376     
  1.002000000000000E-005    -7.46915514092162     
  1.004000000000000E-005    -8.84444586538086     
  1.006000000000000E-005    -8.17952742304885     
  1.008000000000000E-005    -5.05547480652974     
  1.010000000000000E-005    0.417877029959837     
  1.012000000000000E-005     7.51635845162072     
  1.014000000000000E-005     14.9485394655401     
  1.016000000000000E-005     21.0422408878560     
  1.018000000000000E-005     24.0464251016836     
  1.020000000000000E-005     22.4975428960111     
  1.022000000000000E-005     15.5801800724718     
  1.024000000000000E-005     3.40456258831100     
  1.026000000000000E-005    -12.8711493603098     
  1.028000000000000E-005    -31.1256708422865     
  1.030000000000000E-005    -48.5837361867505     
  1.032000000000000E-005    -62.3192838553013     
  1.034000000000000E-005    -69.8683157245082     
  1.036000000000000E-005    -69.8174387442226     
  1.038000000000000E-005    -62.2079802748507     
  1.040000000000000E-005    -48.6039370012465     
  1.042000000000000E-005    -31.7288253719650     
  1.044000000000000E-005    -14.6695859706747     
  1.046000000000000E-005    0.244806994974418     
  1.048000000000000E-005     12.6987147859339     
  1.050000000000000E-005     25.5735914060260     
  1.052000000000000E-005     45.9334310625907     
  1.054000000000000E-005     85.8429705139800     