 -1.200000000000000E-006    0.000000000000000E+000
 -1.180000000000000E-006    0.000000000000000E+000
 -1.160000000000000E-006    0.000000000000000E+000
 -1.140000000000000E-006    0.000000000000000E+000
 -1.120000000000000E-006    0.000000000000000E+000
 -1.100000000000000E-006    0.000000000000000E+000
 -1.080000000000000E-006    0.000000000000000E+000
 -1.060000000000000E-006    0.000000000000000E+000
 -1.040000000000000E-006    0.000000000000000E+000
 -1.020000000000000E-006    0.000000000000000E+000
 -1.000000000000000E-006    0.000000000000000E+000
 -9.799999999999999E-007    0.000000000000000E+000
 -9.599999999999999E-007    0.000000000000000E+000
 -9.399999999999999E-007    0.000000000000000E+000
 -9.199999999999999E-007    0.000000000000000E+000
 -9.000000000000000E-007    0.000000000000000E+000
 -8.799999999999999E-007    0.000000000000000E+000
 -8.599999999999999E-007    0.000000000000000E+000
 -8.400000000000000E-007    0.000000000000000E+000
 -8.200000000000000E-007    0.000000000000000E+000
 -8.000000000000000E-007    0.000000000000000E+000
 -7.799999999999999E-007    0.000000000000000E+000
 -7.599999999999999E-007    0.000000000000000E+000
 -7.399999999999999E-007    0.000000000000000E+000
 -7.199999999999999E-007    0.000000000000000E+000
 -7.000000000000000E-007    0.000000000000000E+000
 -6.799999999999999E-007    0.000000000000000E+000
 -6.599999999999999E-007    0.000000000000000E+000
 -6.399999999999999E-007    0.000000000000000E+000
 -6.199999999999999E-007    0.000000000000000E+000
 -6.000000000000000E-007    0.000000000000000E+000
 -5.800000000000000E-007    0.000000000000000E+000
 -5.599999999999999E-007   -7.862396559817161E-039
 -5.399999999999999E-007    8.104163047386589E-038
 -5.199999999999999E-007   -6.572410273184237E-037
 -5.000000000000000E-007    5.341032154602582E-036
 -4.800000000000000E-007   -3.064393196245346E-035
 -4.599999999999999E-007    1.475920822115042E-034
 -4.399999999999999E-007   -6.211693519685444E-034
 -4.199999999999999E-007    2.287117595303629E-033
 -4.000000000000000E-007   -7.282459466926322E-033
 -3.800000000000000E-007    1.954981225062801E-032
 -3.599999999999999E-007   -4.157647158328607E-032
 -3.399999999999999E-007    5.656836697226722E-032
 -3.199999999999999E-007    2.256574974361644E-032
 -2.999999999999999E-007   -4.389345037632494E-031
 -2.800000000000000E-007    1.600777647511943E-030
 -2.599999999999999E-007   -3.605608089433312E-030
 -2.399999999999998E-007    4.501908557831190E-030
 -2.200000000000000E-007    3.017006130292077E-030
 -2.000000000000000E-007   -3.311640232965149E-029
 -1.800000000000000E-007    9.418071965425780E-029
 -1.600000000000000E-007   -1.425072989483564E-028
 -1.399999999999999E-007    7.441910796006526E-030
 -1.199999999999999E-007    6.079488306076709E-028
 -9.999999999999989E-008   -1.797016585627748E-027
 -7.999999999999987E-008    2.553556519429722E-027
 -5.999999999999985E-008    2.782622237590999E-028
 -3.999999999999983E-008   -1.103595037781802E-026
 -2.000000000000002E-008    2.808008497241497E-026
  0.000000000000000E+000   -2.953506435516366E-026
  2.000000000000002E-008   -3.147374672684168E-026
  4.000000000000004E-008    1.823378649225324E-025
  6.000000000000006E-008   -3.194792992923379E-025
  8.000000000000008E-008    1.222799197016518E-025
  1.000000000000001E-007    7.866965979945089E-025
  1.200000000000001E-007   -2.208420645448752E-024
  1.400000000000001E-007    2.363459885756985E-024
  1.600000000000002E-007    2.114673043273208E-024
  1.800000000000002E-007   -1.212791029008598E-023
  2.000000000000000E-007    1.811417205429786E-023
  2.200000000000000E-007    3.019463098965934E-025
  2.400000000000000E-007   -5.229726310452072E-023
  2.600000000000001E-007    1.011658737017817E-022
  2.800000000000001E-007   -5.290566694071470E-023
  3.000000000000001E-007   -1.847432575769129E-022
  3.200000000000001E-007    5.116463106222531E-022
  3.400000000000001E-007   -4.283537411404352E-022
  3.600000000000002E-007   -6.314679847985000E-022
  3.800000000000002E-007    2.204787329753033E-021
  4.000000000000000E-007   -2.221654561159013E-021
  4.200000000000000E-007   -1.640595276150873E-021
  4.400000000000000E-007    8.625818152498723E-021
  4.600000000000000E-007   -1.054681106598821E-020
  4.800000000000001E-007   -4.776000773778954E-021
  5.000000000000001E-007    3.175813602908980E-020
  5.200000000000001E-007   -3.655034926682563E-020
  5.400000000000001E-007   -6.497568581609795E-021
  5.600000000000001E-007    9.082705746497525E-020
  5.800000000000002E-007   -1.629070690749618E-019
  6.000000000000002E-007    2.657093660733719E-020
  6.200000000000000E-007    4.189056609768736E-019
  6.400000000000000E-007   -5.426832646900577E-019
  6.600000000000000E-007   -2.692106350002077E-019
  6.800000000000001E-007    1.013359569867323E-018
  7.000000000000001E-007   -8.762350934861878E-019
  7.200000000000003E-007    5.227443420886550E-019
  7.400000000000001E-007    2.100660624587513E-018
  7.599999999999999E-007   -6.297028213707330E-018
  7.800000000000002E-007    2.695167688139806E-019
  8.000000000000000E-007    1.335605031653772E-017
  8.200000000000002E-007   -8.825310872079938E-018
  8.400000000000000E-007   -8.121585791719749E-018
  8.600000000000002E-007    1.486784952301059E-017
  8.800000000000000E-007   -2.435561499981896E-017
  9.000000000000003E-007    4.298921397275398E-018
  9.200000000000001E-007    6.402048090679245E-017
  9.399999999999999E-007   -5.846688742295480E-017
  9.600000000000001E-007   -1.746845743171038E-017
  9.799999999999999E-007    1.060447603592383E-016
  1.000000000000000E-006   -2.311445509613434E-016
  1.020000000000000E-006   -9.685622929217868E-017
  1.040000000000000E-006    5.759919829320623E-016
  1.060000000000000E-006    1.283726972329347E-016
  1.080000000000000E-006   -3.614876934415266E-016
  1.100000000000000E-006   -3.938563684443503E-016
  1.120000000000000E-006   -1.361064575649993E-015
  1.140000000000000E-006    4.627334253707728E-016
  1.160000000000000E-006    3.953621518143130E-015
  1.180000000000000E-006    1.147384866422400E-015
  1.200000000000000E-006   -2.496521595010049E-015
  1.220000000000000E-006   -3.758461083247914E-015
  1.240000000000000E-006   -9.193184677434773E-015
  1.260000000000000E-006   -1.850590937425993E-015
  1.280000000000000E-006    2.131443083538116E-014
  1.300000000000000E-006    2.572106778578311E-014
  1.320000000000000E-006    7.546673691110023E-015
  1.340000000000000E-006   -3.595605643260420E-014
  1.360000000000000E-006   -9.909159515251327E-014
  1.380000000000000E-006   -6.289585343761826E-014
  1.400000000000000E-006    1.116030161581153E-013
  1.420000000000000E-006    2.567831604185117E-013
  1.440000000000000E-006    2.360063260456873E-013
  1.460000000000000E-006   -9.798597347835587E-014
  1.480000000000000E-006   -7.200408875144250E-013
  1.500000000000000E-006   -9.240257679662494E-013
  1.520000000000000E-006   -6.163164260434582E-014
  1.540000000000000E-006    1.543352558972175E-012
  1.560000000000000E-006    2.776411301918764E-012
  1.580000000000000E-006    1.720488176534258E-012
  1.600000000000000E-006   -2.622570031836489E-012
  1.620000000000000E-006   -7.394942786076515E-012
  1.640000000000000E-006   -7.515651633824274E-012
  1.660000000000000E-006    5.434171663302276E-013
  1.680000000000000E-006    1.546061238284463E-011
  1.700000000000000E-006    2.599996473095492E-011
  1.720000000000000E-006    1.545662928801628E-011
  1.740000000000000E-006   -2.130268650823136E-011
  1.760000000000000E-006   -6.631053878458783E-011
  1.780000000000000E-006   -7.788461737927861E-011
  1.800000000000000E-006   -1.214454982049879E-011
  1.820000000000000E-006    1.240196442208269E-010
  1.840000000000000E-006    2.411558425980488E-010
  1.860000000000000E-006    2.017690862462603E-010
  1.880000000000000E-006   -8.643262177074178E-011
  1.900000000000000E-006   -5.324136917907691E-010
  1.920000000000000E-006   -7.959317015062222E-010
  1.940000000000000E-006   -4.547135869049444E-010
  1.960000000000000E-006    6.398657580971532E-010
  1.980000000000000E-006    2.006676880558997E-009
  2.000000000000000E-006    2.480756397083066E-009
  2.020000000000000E-006    8.412823820561362E-010
  2.040000000000000E-006   -3.004624787630990E-009
  2.060000000000000E-006   -7.065752423044662E-009
  2.080000000000000E-006   -7.507861092611554E-009
  2.100000000000000E-006   -9.028316904656937E-010
  2.120000000000000E-006    1.202417343355758E-008
  2.140000000000000E-006    2.382895688284163E-008
  2.160000000000000E-006    2.222270882984506E-008
  2.180000000000000E-006   -2.035116073173014E-009
  2.200000000000000E-006   -4.380217978659558E-008
  2.220000000000000E-006   -7.724277502880344E-008
  2.240000000000000E-006   -6.447695279056117E-008
  2.260000000000000E-006    1.818383645061997E-008
  2.280000000000000E-006    1.475851129487965E-007
  2.300000000000000E-006    2.403132711102543E-007
  2.320000000000000E-006    1.852049481260217E-007
  2.340000000000000E-006   -7.624034454425131E-008
  2.360000000000000E-006   -4.607847302727429E-007
  2.380000000000000E-006   -7.183544904706961E-007
  2.400000000000000E-006   -5.366243334255854E-007
  2.420000000000000E-006    2.310429425738811E-007
  2.440000000000000E-006    1.331644780542034E-006
  2.460000000000000E-006    2.065878345305559E-006
  2.480000000000000E-006    1.585007326500108E-006
  2.500000000000000E-006   -5.039754866685728E-007
  2.520000000000000E-006   -3.537594765436043E-006
  2.540000000000000E-006   -5.687831948859665E-006
  2.560000000000000E-006   -4.718749503774784E-006
  2.580000000000000E-006    4.966031041081592E-007
  2.600000000000000E-006    8.466153371050550E-006
  2.620000000000000E-006    1.475289002862861E-005
  2.640000000000001E-006    1.371690427966606E-005
  2.660000000000000E-006    2.087751508460929E-006
  2.680000000000000E-006   -1.738918397962387E-005
  2.700000000000000E-006   -3.491744483878741E-005
  2.720000000000000E-006   -3.724487725805411E-005
  2.740000000000000E-006   -1.542790322470279E-005
  2.760000000000000E-006    2.697315895231363E-005
  2.780000000000000E-006    7.097389565245296E-005
  2.800000000000000E-006    8.880171260964327E-005
  2.820000000000001E-006    5.919679846613850E-005
  2.840000000000000E-006   -1.617285776314576E-005
  2.860000000000000E-006   -1.065001655315541E-004
  2.880000000000000E-006   -1.638788753341889E-004
  2.900000000000000E-006   -1.508520024270793E-004
  2.920000000000000E-006   -6.754947966396022E-005
  2.940000000000000E-006    4.358863622851269E-005
  2.960000000000000E-006    1.277343379134690E-004
  2.980000000000000E-006    1.687426292099934E-004
  3.000000000000000E-006    2.198642272564074E-004
  3.020000000000000E-006    3.663701338010436E-004
  3.040000000000000E-006    6.087442237487587E-004
  3.060000000000000E-006    7.303982663575317E-004
  3.080000000000000E-006    2.856521761672604E-004
  3.100000000000000E-006   -1.158162504535640E-003
  3.120000000000000E-006   -3.522907961340948E-003
  3.140000000000000E-006   -5.709522696025189E-003
  3.160000000000000E-006   -5.545613405985335E-003
  3.180000000000000E-006   -6.563503710574053E-004
  3.200000000000000E-006    9.684287114723935E-003
  3.220000000000000E-006    2.244139759946866E-002
  3.240000000000000E-006    2.995011199112720E-002
  3.260000000000001E-006    2.196866206801049E-002
  3.280000000000000E-006   -8.667707788316905E-003
  3.300000000000000E-006   -5.833555511919520E-002
  3.320000000000000E-006   -0.107014809522306     
  3.340000000000000E-006   -0.120303828791402     
  3.360000000000000E-006   -6.289971667151886E-002
  3.380000000000000E-006    7.805815419900865E-002
  3.400000000000000E-006    0.269138072129445     
  3.420000000000000E-006    0.421801358823098     
  3.440000000000001E-006    0.413718629313170     
  3.460000000000000E-006    0.144770249937151     
  3.480000000000000E-006   -0.387126898503479     
  3.500000000000000E-006    -1.02596963017691     
  3.520000000000000E-006    -1.45878703300428     
  3.540000000000000E-006    -1.31061489473210     
  3.560000000000000E-006   -0.327362166856116     
  3.580000000000000E-006     1.41363585786587     
  3.600000000000000E-006     3.37109565985321     
  3.620000000000000E-006     4.59777285166820     
  3.640000000000000E-006     4.04840739314798     
  3.660000000000000E-006     1.08783918321960     
  3.680000000000000E-006    -3.98023183456466     
  3.700000000000001E-006    -9.63173880133034     
  3.720000000000000E-006    -13.3390729990208     
  3.740000000000000E-006    -12.3830677779262     
  3.760000000000000E-006    -5.09278548933975     
  3.780000000000000E-006     7.93183799867227     
  3.800000000000000E-006     23.2128089162437     
  3.820000000000001E-006     34.9073935672357     
  3.840000000000001E-006     36.5705906612693     
  3.860000000000000E-006     23.7338782045654     
  3.880000000000000E-006    -3.65499555498402     
  3.900000000000000E-006    -40.0947508200191     
  3.920000000000000E-006    -75.5527634025799     
  3.940000000000000E-006    -98.6877420737983     
  3.959999999999999E-006    -101.256642191358     
  3.980000000000001E-006    -81.8521307756277     
  4.000000000000001E-006    -46.9821529889825     
  4.020000000000000E-006    -8.31625889703767     
  4.040000000000000E-006     23.4881783547856     
  4.060000000000000E-006     46.2337922497011     
  4.080000000000000E-006     71.7295190134978     
  4.100000000000000E-006     126.632888758433     
  4.120000000000000E-006     247.690457806680     
  4.139999999999999E-006     473.276072152483     
  4.160000000000001E-006     835.596994476562     
  4.180000000000001E-006     1358.68156636250     
  4.200000000000000E-006     2065.59818707326     
  4.220000000000000E-006     2994.61562131427     
  4.240000000000000E-006     4219.64701040856     
  4.260000000000000E-006     5867.35295397834     
  4.280000000000000E-006     8123.32773339939     
  4.299999999999999E-006     11223.3534623748     
  4.320000000000001E-006     15431.0873051784     
  4.340000000000001E-006     21008.8498393877     
  4.360000000000001E-006     28190.7076272574     
  4.380000000000000E-006     37164.9467114437     
  4.400000000000000E-006     48067.5160859519     
  4.420000000000000E-006     60980.8977880266     
  4.440000000000000E-006     75926.8722524426     
  4.460000000000000E-006     92841.6270664670     
  4.479999999999999E-006     111524.821209929     
  4.500000000000001E-006     131564.380919074     
  4.520000000000001E-006     152248.356827250     
  4.540000000000001E-006     172483.383138541     
  4.560000000000000E-006     190742.266962645     
  4.580000000000000E-006     205058.925239851     
  4.600000000000000E-006     213079.757462529     
  4.620000000000000E-006     212169.720031595     
  4.640000000000000E-006     199564.275470419     
  4.659999999999999E-006     172554.186656634     
  4.680000000000001E-006     128696.178063483     
  4.700000000000001E-006     66044.7651771680     
  4.720000000000001E-006    -16592.2088856056     
  4.740000000000000E-006    -119376.409736177     
  4.760000000000000E-006    -241154.366279021     
  4.780000000000000E-006    -379197.396877798     
  4.800000000000000E-006    -529013.051940534     
  4.820000000000000E-006    -684287.245548344     
  4.839999999999999E-006    -837001.488428202     
  4.860000000000001E-006    -977748.198140083     
  4.880000000000001E-006    -1096234.19693180     
  4.900000000000001E-006    -1181917.63542266     
  4.920000000000000E-006    -1224723.44643880     
  4.940000000000000E-006    -1215789.51391681     
  4.960000000000000E-006    -1148204.71731242     
  4.980000000000000E-006    -1017720.98150769     
  5.000000000000000E-006    -823426.720210153     
  5.019999999999999E-006    -568307.531790810     
  5.040000000000001E-006    -259601.807352795     
  5.060000000000001E-006     91177.0457103567     
  5.080000000000000E-006     468642.172633371     
  5.100000000000000E-006     854363.361107004     
  5.120000000000000E-006     1228065.40109054     
  5.140000000000000E-006     1569052.85589845     
  5.160000000000000E-006     1857659.37598709     
  5.180000000000000E-006     2076583.18596889     
  5.199999999999999E-006     2212019.07639917     
  5.220000000000001E-006     2254556.47226899     
  5.240000000000001E-006     2199842.26983880     
  5.260000000000000E-006     2048997.94859605     
  5.280000000000000E-006     1808736.25043595     
  5.300000000000000E-006     1491128.58515630     
  5.320000000000000E-006     1112909.63195123     
  5.340000000000000E-006     694319.335726799     
  5.360000000000000E-006     257579.351581827     
  5.380000000000001E-006    -174782.037226339     
  5.400000000000001E-006    -581512.153363743     
  5.420000000000001E-006    -943924.094704495     
  5.440000000000000E-006    -1246803.78923168     
  5.460000000000000E-006    -1478986.07181818     
  5.480000000000000E-006    -1633735.66110846     
  5.500000000000000E-006    -1708981.34058280     
  5.520000000000000E-006    -1707332.56982432     
  5.539999999999999E-006    -1635757.69983358     
  5.560000000000001E-006    -1504836.73631241     
  5.580000000000001E-006    -1327665.13439028     
  5.600000000000001E-006    -1118581.98961401     
  5.620000000000000E-006    -891962.581238208     
  5.640000000000000E-006    -661249.741508704     
  5.660000000000000E-006    -438210.849436291     
  5.680000000000000E-006    -232331.295036584     
  5.700000000000000E-006    -50360.6814980929     
  5.719999999999999E-006     103883.943352838     
  5.740000000000001E-006     229353.548627248     
  5.760000000000001E-006     327211.821293620     
  5.780000000000001E-006     400013.157212911     
  5.800000000000000E-006     450852.099032539     
  5.820000000000000E-006     482710.867645966     
  5.840000000000000E-006     498099.546759617     
  5.860000000000000E-006     498895.937401223     
  5.880000000000000E-006     486266.060579057     
  5.899999999999999E-006     460677.916932086     
  5.920000000000001E-006     422094.447644493     
  5.940000000000001E-006     370410.044232000     
  5.960000000000001E-006     306113.870747344     
  5.980000000000000E-006     231021.763520504     
  6.000000000000000E-006     148807.473844926     
  6.020000000000000E-006     65111.3930739546     
  6.040000000000000E-006    -12865.4916462937     
  6.060000000000000E-006    -77227.7510000995     
  6.079999999999999E-006    -120570.333558478     
  6.100000000000001E-006    -137330.670891561     
  6.120000000000001E-006    -125064.791836304     
  6.140000000000001E-006    -85316.2231127835     
  6.160000000000000E-006    -23830.4676849768     
  6.180000000000000E-006     49999.8878688004     
  6.200000000000000E-006     124409.560914469     
  6.220000000000000E-006     186963.806626644     
  6.240000000000000E-006     226298.470279731     
  6.260000000000001E-006     233599.812962341     
  6.280000000000001E-006     203741.658028942     
  6.300000000000001E-006     136229.492803738     
  6.320000000000000E-006     36033.7950388049     
  6.340000000000000E-006    -85974.8007643385     
  6.360000000000000E-006    -213527.211055564     
  6.380000000000000E-006    -326884.274758625     
  6.400000000000000E-006    -406194.162339009     
  6.420000000000000E-006    -435447.748239577     
  6.439999999999999E-006    -405735.436086410     
  6.459999999999999E-006    -316795.631883135     
  6.480000000000001E-006    -176681.248715249     
  6.500000000000000E-006    -316.775665707828     
  6.520000000000000E-006     192041.293339136     
  6.540000000000000E-006     376189.396760508     
  6.560000000000000E-006     525867.235153307     
  6.580000000000000E-006     616032.927478555     
  6.599999999999999E-006     627549.219214909     
  6.619999999999999E-006     551846.953776633     
  6.639999999999999E-006     393531.038380507     
  6.660000000000001E-006     169819.930785219     
  6.680000000000000E-006    -92656.9440612275     
  6.700000000000000E-006    -361969.270585242     
  6.720000000000000E-006    -604390.675897173     
  6.740000000000000E-006    -787269.276084788     
  6.760000000000000E-006    -882288.975461650     
  6.779999999999999E-006    -869751.754238380     
  6.799999999999999E-006    -743107.541872151     
  6.819999999999999E-006    -511698.501913339     
  6.840000000000001E-006    -200092.709713996     
  6.860000000000000E-006     155701.827087634     
  6.880000000000000E-006     513368.080364403     
  6.900000000000000E-006     829038.821517840     
  6.920000000000000E-006     1061370.46805036     
  6.940000000000000E-006     1175995.41287345     
  6.959999999999999E-006     1150915.47469944     
  6.979999999999999E-006     981491.651533961     
  6.999999999999999E-006     682643.775593052     
  7.020000000000001E-006     286769.303331631     
  7.040000000000000E-006    -161718.370176279     
  7.060000000000000E-006    -612498.017757388     
  7.080000000000000E-006    -1014088.58468429     
  7.100000000000000E-006    -1317584.22104153     
  7.120000000000000E-006    -1481217.29775019     
  7.139999999999999E-006    -1476845.65347510     
  7.159999999999999E-006    -1296667.72512548     
  7.179999999999999E-006    -956445.543453210     
  7.200000000000001E-006    -492979.718048829     
  7.220000000000000E-006     42824.2566235000     
  7.240000000000000E-006     593506.334162752     
  7.260000000000000E-006     1100213.10276747     
  7.280000000000000E-006     1505957.43045547     
  7.300000000000000E-006     1759927.96763640     
  7.319999999999999E-006     1824573.27251142     
  7.339999999999999E-006     1683816.60393378     
  7.359999999999999E-006     1348102.14301180     
  7.380000000000000E-006     852823.097643753     
  7.400000000000000E-006     251042.333309755     
  7.420000000000000E-006    -394984.817734975     
  7.440000000000000E-006    -1019660.15899154     
  7.460000000000000E-006    -1557362.00469785     
  7.480000000000000E-006    -1946631.28451039     
  7.499999999999999E-006    -2137723.00807077     
  7.519999999999999E-006    -2101805.54424896     
  7.540000000000001E-006    -1837405.48593678     
  7.560000000000000E-006    -1370717.56091964     
  7.580000000000000E-006    -749921.685686418     
  7.600000000000000E-006    -37190.6931083055     
  7.620000000000000E-006     697643.115378057     
  7.640000000000000E-006     1381201.39771365     
  7.660000000000000E-006     1941218.29612957     
  7.679999999999999E-006     2314308.99526112     
  7.699999999999999E-006     2455677.84385081     
  7.720000000000001E-006     2346306.40602589     
  7.740000000000000E-006     1994666.79407179     
  7.760000000000000E-006     1433898.34493713     
  7.780000000000000E-006     717073.917704697     
  7.800000000000000E-006    -87612.1816431222     
  7.820000000000000E-006    -901690.867023670     
  7.839999999999999E-006    -1642740.09043836     
  7.859999999999999E-006    -2233241.10865199     
  7.879999999999999E-006    -2610770.10450409     
  7.900000000000001E-006    -2735971.20669060     
  7.920000000000000E-006    -2595255.01226112     
  7.940000000000000E-006    -2199384.13587605     
  7.960000000000000E-006    -1581724.93924968     
  7.980000000000000E-006    -797165.111227974     
  8.000000000000000E-006     80719.4824375086     
  8.019999999999999E-006     966185.554230767     
  8.039999999999999E-006     1770931.84129394     
  8.059999999999999E-006     2414649.92172654     
  8.080000000000001E-006     2834251.41665152     
  8.100000000000000E-006     2989674.22693498     
  8.120000000000000E-006     2865360.82600550     
  8.140000000000000E-006     2469587.49867779     
  8.160000000000000E-006     1834565.66240600     
  8.180000000000000E-006     1016201.88862928     
  8.199999999999999E-006     90048.0936038538     
  8.219999999999999E-006    -856830.746377332     
  8.239999999999999E-006    -1735108.36126885     
  8.260000000000001E-006    -2461603.50251528     
  8.280000000000000E-006    -2967169.89125491     
  8.300000000000000E-006    -3203681.33639248     
  8.320000000000000E-006    -3148062.57983803     
  8.340000000000000E-006    -2803234.11575126     
  8.360000000000000E-006    -2197960.53627003     
  8.379999999999999E-006    -1385367.79012216     
  8.399999999999999E-006    -438124.585669151     
  8.419999999999999E-006     558932.993527937     
  8.440000000000001E-006     1516075.63858097     
  8.460000000000000E-006     2345670.40965939     
  8.480000000000000E-006     2970605.17667818     
  8.500000000000000E-006     3333127.57088081     
  8.520000000000000E-006     3400271.30623850     
  8.540000000000000E-006     3165041.39359867     
  8.559999999999999E-006     2646362.36314889     
  8.579999999999999E-006     1888481.84830067     
  8.600000000000001E-006     957388.772771696     
  8.620000000000000E-006    -65744.0308983705     
  8.640000000000000E-006    -1091526.91228929     
  8.660000000000000E-006    -2029282.06502530     
  8.680000000000000E-006    -2795413.18926097     
  8.700000000000000E-006    -3322126.19550244     
  8.720000000000000E-006    -3563108.67257427     
  8.739999999999999E-006    -3495997.04755713     
  8.759999999999999E-006    -3124520.43911523     
  8.780000000000001E-006    -2479821.64832742     
  8.800000000000000E-006    -1617491.12450269     
  8.820000000000000E-006    -610975.397224452     
  8.840000000000000E-006     454627.125091671     
  8.860000000000000E-006     1488013.67215855     
  8.880000000000000E-006     2399322.84016066     
  8.899999999999999E-006     3109695.12773199     
  8.919999999999999E-006     3558693.56582704     
  8.939999999999999E-006     3708156.16783728     
  8.960000000000001E-006     3544846.17878717     
  8.980000000000000E-006     3081985.73727288     
  9.000000000000000E-006     2357424.19978580     
  9.020000000000000E-006     1429758.44683911     
  9.040000000000000E-006     375404.258178872     
  9.060000000000000E-006    -715441.810234229     
  9.079999999999999E-006    -1748067.82743082     
  9.099999999999999E-006    -2635470.93399633     
  9.119999999999999E-006    -3306502.59576136     
  9.140000000000001E-006    -3708149.56377272     
  9.160000000000000E-006    -3806947.03613846     
  9.180000000000000E-006    -3592258.25249725     
  9.200000000000000E-006    -3078792.18380499     
  9.220000000000000E-006    -2306771.56523845     
  9.240000000000000E-006    -1340346.56728432     
  9.259999999999999E-006    -262430.948616158     
  9.279999999999999E-006     835756.278429008     
  9.299999999999999E-006     1865975.31294272     
  9.320000000000001E-006     2748566.01855931     
  9.340000000000000E-006     3413554.41540823     
  9.360000000000000E-006     3804458.57263220     
  9.380000000000000E-006     3886320.63098713     
  9.400000000000000E-006     3651706.02281247     
  9.420000000000000E-006     3120781.31923221     
  9.439999999999999E-006     2337956.62814666     
  9.459999999999999E-006     1367293.53908185     
  9.479999999999999E-006     286385.707199949     
  9.500000000000001E-006    -819996.894746227     
  9.520000000000000E-006    -1864540.71055939     
  9.540000000000000E-006    -2762283.68277363     
  9.560000000000000E-006    -3439100.11241931     
  9.580000000000000E-006    -3841291.20097900     
  9.600000000000000E-006    -3939928.11737144     
  9.619999999999999E-006    -3729275.72914066     
  9.639999999999999E-006    -3224944.91053494     
  9.660000000000001E-006    -2464402.98672569     
  9.680000000000000E-006    -1506608.40635170     
  9.700000000000000E-006    -427964.560756002     
  9.720000000000000E-006     684675.788805676     
  9.740000000000000E-006     1742394.59922237     
  9.760000000000000E-006     2662701.90085252     
  9.780000000000000E-006     3375968.43407260     
  9.799999999999999E-006     3828451.93483365     
  9.819999999999999E-006     3984275.22049052     
  9.840000000000001E-006     3829300.60445715     
  9.860000000000000E-006     3375104.88974031     
  9.880000000000000E-006     2658740.80003274     
  9.900000000000000E-006     1737807.39173506     
  9.920000000000000E-006     683988.548708965     
  9.940000000000000E-006    -422604.388302090     
  9.960000000000000E-006    -1498229.91528673     
  9.979999999999999E-006    -2460352.34906577     
  9.999999999999999E-006    -3233547.24591210     
  1.002000000000000E-005    -3756827.30599139     
  1.004000000000000E-005    -3990574.84739127     
  1.006000000000000E-005    -3919658.85937740     
  1.008000000000000E-005    -3551946.49220088     
  1.010000000000000E-005    -2915557.31372027     
  1.012000000000000E-005    -2057401.09859175     
  1.014000000000000E-005    -1041548.85364663     
  1.016000000000000E-005     54612.2115898244     
  1.018000000000000E-005     1146550.73487215     
  1.020000000000000E-005     2150130.74392098     
  1.022000000000000E-005     2989264.28980790     
  1.024000000000000E-005     3602057.22757232     
  1.026000000000000E-005     3944216.23663045     
  1.028000000000000E-005     3990604.84478571     
  1.030000000000000E-005     3737140.72352396     
  1.032000000000000E-005     3202686.71134538     
  1.034000000000000E-005     2428225.64416966     
  1.036000000000000E-005     1472821.29254935     
  1.038000000000000E-005     408373.808824016     
  1.040000000000000E-005    -685674.163787543     
  1.042000000000000E-005    -1727884.30816367     
  1.044000000000000E-005    -2640727.37241765     
  1.046000000000000E-005    -3356327.64843296     
  1.048000000000000E-005    -3821533.17546841     
  1.050000000000000E-005    -4002220.99476037     
  1.052000000000000E-005    -3886138.75803936     
  1.054000000000000E-005    -3483217.00180066     