 -1.200000000000000E-006    0.000000000000000E+000
 -1.180000000000000E-006    0.000000000000000E+000
 -1.160000000000000E-006    0.000000000000000E+000
 -1.140000000000000E-006    0.000000000000000E+000
 -1.120000000000000E-006    0.000000000000000E+000
 -1.100000000000000E-006    0.000000000000000E+000
 -1.080000000000000E-006    0.000000000000000E+000
 -1.060000000000000E-006    0.000000000000000E+000
 -1.040000000000000E-006    0.000000000000000E+000
 -1.020000000000000E-006    0.000000000000000E+000
 -1.000000000000000E-006    0.000000000000000E+000
 -9.799999999999999E-007    0.000000000000000E+000
 -9.599999999999999E-007    0.000000000000000E+000
 -9.399999999999999E-007    0.000000000000000E+000
 -9.199999999999999E-007    0.000000000000000E+000
 -9.000000000000000E-007    0.000000000000000E+000
 -8.799999999999999E-007    0.000000000000000E+000
 -8.599999999999999E-007    0.000000000000000E+000
 -8.400000000000000E-007    0.000000000000000E+000
 -8.200000000000000E-007    0.000000000000000E+000
 -8.000000000000000E-007    0.000000000000000E+000
 -7.799999999999999E-007    0.000000000000000E+000
 -7.599999999999999E-007    0.000000000000000E+000
 -7.399999999999999E-007    0.000000000000000E+000
 -7.199999999999999E-007    0.000000000000000E+000
 -7.000000000000000E-007    0.000000000000000E+000
 -6.799999999999999E-007    0.000000000000000E+000
 -6.599999999999999E-007    0.000000000000000E+000
 -6.399999999999999E-007    0.000000000000000E+000
 -6.199999999999999E-007    0.000000000000000E+000
 -6.000000000000000E-007    0.000000000000000E+000
 -5.800000000000000E-007    0.000000000000000E+000
 -5.599999999999999E-007    0.000000000000000E+000
 -5.399999999999999E-007    0.000000000000000E+000
 -5.199999999999999E-007    0.000000000000000E+000
 -5.000000000000000E-007    0.000000000000000E+000
 -4.800000000000000E-007    0.000000000000000E+000
 -4.599999999999999E-007    0.000000000000000E+000
 -4.399999999999999E-007    0.000000000000000E+000
 -4.199999999999999E-007    0.000000000000000E+000
 -4.000000000000000E-007    0.000000000000000E+000
 -3.800000000000000E-007    0.000000000000000E+000
 -3.599999999999999E-007    0.000000000000000E+000
 -3.399999999999999E-007    0.000000000000000E+000
 -3.199999999999999E-007    0.000000000000000E+000
 -2.999999999999999E-007    0.000000000000000E+000
 -2.800000000000000E-007    0.000000000000000E+000
 -2.599999999999999E-007    0.000000000000000E+000
 -2.399999999999998E-007    0.000000000000000E+000
 -2.200000000000000E-007    0.000000000000000E+000
 -2.000000000000000E-007    0.000000000000000E+000
 -1.800000000000000E-007    0.000000000000000E+000
 -1.600000000000000E-007    0.000000000000000E+000
 -1.399999999999999E-007    0.000000000000000E+000
 -1.199999999999999E-007    0.000000000000000E+000
 -9.999999999999989E-008    0.000000000000000E+000
 -7.999999999999987E-008    0.000000000000000E+000
 -5.999999999999985E-008    0.000000000000000E+000
 -3.999999999999983E-008    0.000000000000000E+000
 -2.000000000000002E-008    0.000000000000000E+000
  0.000000000000000E+000    0.000000000000000E+000
  2.000000000000002E-008    0.000000000000000E+000
  4.000000000000004E-008    0.000000000000000E+000
  6.000000000000006E-008    0.000000000000000E+000
  8.000000000000008E-008    0.000000000000000E+000
  1.000000000000001E-007    0.000000000000000E+000
  1.200000000000001E-007    0.000000000000000E+000
  1.400000000000001E-007    0.000000000000000E+000
  1.600000000000002E-007    0.000000000000000E+000
  1.800000000000002E-007    0.000000000000000E+000
  2.000000000000000E-007    0.000000000000000E+000
  2.200000000000000E-007    0.000000000000000E+000
  2.400000000000000E-007    0.000000000000000E+000
  2.600000000000001E-007    0.000000000000000E+000
  2.800000000000001E-007    0.000000000000000E+000
  3.000000000000001E-007    0.000000000000000E+000
  3.200000000000001E-007    0.000000000000000E+000
  3.400000000000001E-007    0.000000000000000E+000
  3.600000000000002E-007    0.000000000000000E+000
  3.800000000000002E-007    0.000000000000000E+000
  4.000000000000000E-007    0.000000000000000E+000
  4.200000000000000E-007    0.000000000000000E+000
  4.400000000000000E-007    0.000000000000000E+000
  4.600000000000000E-007    0.000000000000000E+000
  4.800000000000001E-007    0.000000000000000E+000
  5.000000000000001E-007    0.000000000000000E+000
  5.200000000000001E-007    0.000000000000000E+000
  5.400000000000001E-007    0.000000000000000E+000
  5.600000000000001E-007    0.000000000000000E+000
  5.800000000000002E-007    0.000000000000000E+000
  6.000000000000002E-007    0.000000000000000E+000
  6.200000000000000E-007    0.000000000000000E+000
  6.400000000000000E-007    0.000000000000000E+000
  6.600000000000000E-007    0.000000000000000E+000
  6.800000000000001E-007    0.000000000000000E+000
  7.000000000000001E-007    0.000000000000000E+000
  7.200000000000003E-007    0.000000000000000E+000
  7.400000000000001E-007    0.000000000000000E+000
  7.599999999999999E-007    0.000000000000000E+000
  7.800000000000002E-007    0.000000000000000E+000
  8.000000000000000E-007    0.000000000000000E+000
  8.200000000000002E-007    0.000000000000000E+000
  8.400000000000000E-007    0.000000000000000E+000
  8.600000000000002E-007    0.000000000000000E+000
  8.800000000000000E-007    0.000000000000000E+000
  9.000000000000003E-007    0.000000000000000E+000
  9.200000000000001E-007    0.000000000000000E+000
  9.399999999999999E-007    0.000000000000000E+000
  9.600000000000001E-007    0.000000000000000E+000
  9.799999999999999E-007    0.000000000000000E+000
  1.000000000000000E-006    0.000000000000000E+000
  1.020000000000000E-006    0.000000000000000E+000
  1.040000000000000E-006    0.000000000000000E+000
  1.060000000000000E-006    0.000000000000000E+000
  1.080000000000000E-006    0.000000000000000E+000
  1.100000000000000E-006    0.000000000000000E+000
  1.120000000000000E-006    0.000000000000000E+000
  1.140000000000000E-006    0.000000000000000E+000
  1.160000000000000E-006    0.000000000000000E+000
  1.180000000000000E-006    0.000000000000000E+000
  1.200000000000000E-006    0.000000000000000E+000
  1.220000000000000E-006    0.000000000000000E+000
  1.240000000000000E-006    0.000000000000000E+000
  1.260000000000000E-006    0.000000000000000E+000
  1.280000000000000E-006    0.000000000000000E+000
  1.300000000000000E-006    0.000000000000000E+000
  1.320000000000000E-006    0.000000000000000E+000
  1.340000000000000E-006    0.000000000000000E+000
  1.360000000000000E-006    0.000000000000000E+000
  1.380000000000000E-006    0.000000000000000E+000
  1.400000000000000E-006    0.000000000000000E+000
  1.420000000000000E-006    0.000000000000000E+000
  1.440000000000000E-006    0.000000000000000E+000
  1.460000000000000E-006    0.000000000000000E+000
  1.480000000000000E-006    0.000000000000000E+000
  1.500000000000000E-006    0.000000000000000E+000
  1.520000000000000E-006    0.000000000000000E+000
  1.540000000000000E-006    0.000000000000000E+000
  1.560000000000000E-006    0.000000000000000E+000
  1.580000000000000E-006    0.000000000000000E+000
  1.600000000000000E-006    0.000000000000000E+000
  1.620000000000000E-006    0.000000000000000E+000
  1.640000000000000E-006    0.000000000000000E+000
  1.660000000000000E-006    0.000000000000000E+000
  1.680000000000000E-006    0.000000000000000E+000
  1.700000000000000E-006    0.000000000000000E+000
  1.720000000000000E-006    0.000000000000000E+000
  1.740000000000000E-006    0.000000000000000E+000
  1.760000000000000E-006    0.000000000000000E+000
  1.780000000000000E-006    0.000000000000000E+000
  1.800000000000000E-006    0.000000000000000E+000
  1.820000000000000E-006    0.000000000000000E+000
  1.840000000000000E-006    0.000000000000000E+000
  1.860000000000000E-006    0.000000000000000E+000
  1.880000000000000E-006    0.000000000000000E+000
  1.900000000000000E-006    0.000000000000000E+000
  1.920000000000000E-006    0.000000000000000E+000
  1.940000000000000E-006    0.000000000000000E+000
  1.960000000000000E-006    0.000000000000000E+000
  1.980000000000000E-006    0.000000000000000E+000
  2.000000000000000E-006    0.000000000000000E+000
  2.020000000000000E-006    0.000000000000000E+000
  2.040000000000000E-006    0.000000000000000E+000
  2.060000000000000E-006    0.000000000000000E+000
  2.080000000000000E-006    0.000000000000000E+000
  2.100000000000000E-006    0.000000000000000E+000
  2.120000000000000E-006    0.000000000000000E+000
  2.140000000000000E-006    0.000000000000000E+000
  2.160000000000000E-006    0.000000000000000E+000
  2.180000000000000E-006    0.000000000000000E+000
  2.200000000000000E-006    0.000000000000000E+000
  2.220000000000000E-006    0.000000000000000E+000
  2.240000000000000E-006    0.000000000000000E+000
  2.260000000000000E-006    0.000000000000000E+000
  2.280000000000000E-006    0.000000000000000E+000
  2.300000000000000E-006    0.000000000000000E+000
  2.320000000000000E-006    0.000000000000000E+000
  2.340000000000000E-006    0.000000000000000E+000
  2.360000000000000E-006    0.000000000000000E+000
  2.380000000000000E-006    0.000000000000000E+000
  2.400000000000000E-006    0.000000000000000E+000
  2.420000000000000E-006    0.000000000000000E+000
  2.440000000000000E-006    0.000000000000000E+000
  2.460000000000000E-006    0.000000000000000E+000
  2.480000000000000E-006    0.000000000000000E+000
  2.500000000000000E-006    0.000000000000000E+000
  2.520000000000000E-006    0.000000000000000E+000
  2.540000000000000E-006    0.000000000000000E+000
  2.560000000000000E-006    0.000000000000000E+000
  2.580000000000000E-006    0.000000000000000E+000
  2.600000000000000E-006    0.000000000000000E+000
  2.620000000000000E-006    0.000000000000000E+000
  2.640000000000001E-006    0.000000000000000E+000
  2.660000000000000E-006    0.000000000000000E+000
  2.680000000000000E-006    0.000000000000000E+000
  2.700000000000000E-006    0.000000000000000E+000
  2.720000000000000E-006    0.000000000000000E+000
  2.740000000000000E-006    0.000000000000000E+000
  2.760000000000000E-006    0.000000000000000E+000
  2.780000000000000E-006    0.000000000000000E+000
  2.800000000000000E-006    0.000000000000000E+000
  2.820000000000001E-006    0.000000000000000E+000
  2.840000000000000E-006    0.000000000000000E+000
  2.860000000000000E-006    0.000000000000000E+000
  2.880000000000000E-006    0.000000000000000E+000
  2.900000000000000E-006    0.000000000000000E+000
  2.920000000000000E-006    0.000000000000000E+000
  2.940000000000000E-006    0.000000000000000E+000
  2.960000000000000E-006    0.000000000000000E+000
  2.980000000000000E-006    0.000000000000000E+000
  3.000000000000000E-006    0.000000000000000E+000
  3.020000000000000E-006    0.000000000000000E+000
  3.040000000000000E-006    0.000000000000000E+000
  3.060000000000000E-006    0.000000000000000E+000
  3.080000000000000E-006    0.000000000000000E+000
  3.100000000000000E-006    0.000000000000000E+000
  3.120000000000000E-006    0.000000000000000E+000
  3.140000000000000E-006    0.000000000000000E+000
  3.160000000000000E-006    0.000000000000000E+000
  3.180000000000000E-006    0.000000000000000E+000
  3.200000000000000E-006    0.000000000000000E+000
  3.220000000000000E-006    0.000000000000000E+000
  3.240000000000000E-006    0.000000000000000E+000
  3.260000000000001E-006    0.000000000000000E+000
  3.280000000000000E-006    0.000000000000000E+000
  3.300000000000000E-006    0.000000000000000E+000
  3.320000000000000E-006    0.000000000000000E+000
  3.340000000000000E-006    0.000000000000000E+000
  3.360000000000000E-006    0.000000000000000E+000
  3.380000000000000E-006    0.000000000000000E+000
  3.400000000000000E-006    0.000000000000000E+000
  3.420000000000000E-006    0.000000000000000E+000
  3.440000000000001E-006    0.000000000000000E+000
  3.460000000000000E-006    0.000000000000000E+000
  3.480000000000000E-006    0.000000000000000E+000
  3.500000000000000E-006    0.000000000000000E+000
  3.520000000000000E-006    0.000000000000000E+000
  3.540000000000000E-006    0.000000000000000E+000
  3.560000000000000E-006    0.000000000000000E+000
  3.580000000000000E-006    0.000000000000000E+000
  3.600000000000000E-006    0.000000000000000E+000
  3.620000000000000E-006    0.000000000000000E+000
  3.640000000000000E-006    0.000000000000000E+000
  3.660000000000000E-006    0.000000000000000E+000
  3.680000000000000E-006    0.000000000000000E+000
  3.700000000000001E-006    0.000000000000000E+000
  3.720000000000000E-006    0.000000000000000E+000
  3.740000000000000E-006    0.000000000000000E+000
  3.760000000000000E-006    0.000000000000000E+000
  3.780000000000000E-006    0.000000000000000E+000
  3.800000000000000E-006    0.000000000000000E+000
  3.820000000000001E-006    0.000000000000000E+000
  3.840000000000001E-006    0.000000000000000E+000
  3.860000000000000E-006    0.000000000000000E+000
  3.880000000000000E-006    0.000000000000000E+000
  3.900000000000000E-006    0.000000000000000E+000
  3.920000000000000E-006    0.000000000000000E+000
  3.940000000000000E-006    0.000000000000000E+000
  3.959999999999999E-006    0.000000000000000E+000
  3.980000000000001E-006    0.000000000000000E+000
  4.000000000000001E-006    0.000000000000000E+000
  4.020000000000000E-006    0.000000000000000E+000
  4.040000000000000E-006    0.000000000000000E+000
  4.060000000000000E-006    0.000000000000000E+000
  4.080000000000000E-006    0.000000000000000E+000
  4.100000000000000E-006    0.000000000000000E+000
  4.120000000000000E-006    0.000000000000000E+000
  4.139999999999999E-006    0.000000000000000E+000
  4.160000000000001E-006    0.000000000000000E+000
  4.180000000000001E-006    0.000000000000000E+000
  4.200000000000000E-006    0.000000000000000E+000
  4.220000000000000E-006    0.000000000000000E+000
  4.240000000000000E-006    0.000000000000000E+000
  4.260000000000000E-006    0.000000000000000E+000
  4.280000000000000E-006    0.000000000000000E+000
  4.299999999999999E-006    0.000000000000000E+000
  4.320000000000001E-006    0.000000000000000E+000
  4.340000000000001E-006    0.000000000000000E+000
  4.360000000000001E-006    0.000000000000000E+000
  4.380000000000000E-006    0.000000000000000E+000
  4.400000000000000E-006    0.000000000000000E+000
  4.420000000000000E-006    0.000000000000000E+000
  4.440000000000000E-006    0.000000000000000E+000
  4.460000000000000E-006    0.000000000000000E+000
  4.479999999999999E-006    0.000000000000000E+000
  4.500000000000001E-006    0.000000000000000E+000
  4.520000000000001E-006    0.000000000000000E+000
  4.540000000000001E-006    0.000000000000000E+000
  4.560000000000000E-006    0.000000000000000E+000
  4.580000000000000E-006    0.000000000000000E+000
  4.600000000000000E-006    0.000000000000000E+000
  4.620000000000000E-006    0.000000000000000E+000
  4.640000000000000E-006    0.000000000000000E+000
  4.659999999999999E-006    0.000000000000000E+000
  4.680000000000001E-006   -2.905214306500817E-039
  4.700000000000001E-006   -5.810428613001634E-039
  4.720000000000001E-006    2.981004441424985E-039
  4.740000000000000E-006    1.177243778820631E-038
  4.760000000000000E-006    7.239956877534040E-039
  4.780000000000000E-006   -1.173652817380719E-039
  4.800000000000000E-006   -3.011484025504746E-039
  4.820000000000000E-006    1.568277853567062E-038
  4.839999999999999E-006    2.090687532322191E-038
  4.860000000000001E-006    1.526459875990595E-037
  4.880000000000001E-006    1.347328315884948E-037
  4.900000000000001E-006    1.864924233933146E-037
  4.920000000000000E-006    1.015296376690403E-037
  4.940000000000000E-006   -1.752554066495160E-037
  4.960000000000000E-006   -6.424579435492476E-037
  4.980000000000000E-006   -1.088243098636187E-036
  5.000000000000000E-006   -2.388415724916039E-036
  5.019999999999999E-006   -3.792707330200334E-036
  5.040000000000001E-006   -2.504799266790002E-036
  5.060000000000001E-006    2.812015530446943E-036
  5.080000000000000E-006    8.956088444035107E-036
  5.100000000000000E-006    1.175994222089292E-035
  5.120000000000000E-006    2.663205332101799E-036
  5.140000000000000E-006   -1.873355797980459E-035
  5.160000000000000E-006   -3.183223320144844E-035
  5.180000000000000E-006   -1.859063639867322E-035
  5.199999999999999E-006    3.259597580905331E-035
  5.220000000000001E-006    9.860848856529330E-035
  5.240000000000001E-006    9.364633528851846E-035
  5.260000000000000E-006   -4.203708071516607E-035
  5.280000000000000E-006   -2.539309064662894E-034
  5.300000000000000E-006   -3.645586452939239E-034
  5.320000000000000E-006   -1.071127351113274E-034
  5.340000000000000E-006    5.691361674860045E-034
  5.360000000000000E-006    1.171143262206199E-033
  5.380000000000001E-006    8.916078834342765E-034
  5.400000000000001E-006   -7.870254581968184E-034
  5.420000000000001E-006   -3.211941944278210E-033
  5.440000000000000E-006   -3.984768587640490E-033
  5.460000000000000E-006   -4.721557935434107E-034
  5.480000000000000E-006    7.071158330908298E-033
  5.500000000000000E-006    1.337350978551759E-032
  5.520000000000000E-006    9.356094998029943E-033
  5.539999999999999E-006   -1.036804754934765E-032
  5.560000000000001E-006   -3.668808913519424E-032
  5.580000000000001E-006   -4.391830997905574E-032
  5.600000000000001E-006   -4.900286023899421E-033
  5.620000000000000E-006    7.847760310808977E-032
  5.640000000000000E-006    1.483252256650774E-031
  5.660000000000000E-006    1.072959034191683E-031
  5.680000000000000E-006   -1.014440239731237E-031
  5.700000000000000E-006   -3.908674082118786E-031
  5.719999999999999E-006   -4.957632590367197E-031
  5.740000000000001E-006   -1.153299211910962E-031
  5.760000000000001E-006    7.638338756585925E-031
  5.780000000000001E-006    1.586584072476549E-030
  5.800000000000000E-006    1.345420757209454E-030
  5.820000000000000E-006   -6.832806254079846E-031
  5.840000000000000E-006   -3.838804245073536E-030
  5.860000000000000E-006   -5.553268678239538E-030
  5.880000000000000E-006   -2.532162093694947E-030
  5.899999999999999E-006    6.190124036476982E-030
  5.920000000000001E-006    1.603275682183136E-029
  5.940000000000001E-006    1.694483911944929E-029
  5.960000000000001E-006   -3.046350156088057E-031
  5.980000000000000E-006   -3.312113382543184E-029
  6.000000000000000E-006   -5.931515504132289E-029
  6.020000000000000E-006   -4.390792628168601E-029
  6.040000000000000E-006    3.393196795759021E-029
  6.060000000000000E-006    1.454743057128039E-028
  6.079999999999999E-006    1.996027800982132E-028
  6.100000000000001E-006    8.600013139469338E-029
  6.120000000000001E-006   -2.230691937457369E-028
  6.140000000000001E-006   -5.701409585746150E-028
  6.160000000000000E-006   -6.179229502777989E-028
  6.180000000000000E-006   -4.995318768316424E-029
  6.200000000000000E-006    1.077035240749707E-027
  6.220000000000000E-006    2.068035139082588E-027
  6.240000000000000E-006    1.763750905407575E-027
  6.260000000000001E-006   -6.531302853475134E-028
  6.280000000000001E-006   -4.516970992744826E-027
  6.300000000000001E-006   -7.092904770308614E-027
  6.320000000000000E-006   -4.612278486695090E-027
  6.340000000000000E-006    4.761232072141548E-027
  6.360000000000000E-006    1.742500827583349E-026
  6.380000000000000E-006    2.337169606706690E-026
  6.400000000000000E-006    1.084102005131327E-026
  6.420000000000000E-006   -2.339348008341656E-026
  6.439999999999999E-006   -6.365292655183226E-026
  6.459999999999999E-006   -7.505740513956851E-026
  6.480000000000001E-006   -2.185176513226411E-026
  6.500000000000000E-006    9.830164097461290E-026
  6.520000000000000E-006    2.243161809333733E-025
  6.540000000000000E-006    2.384008696977415E-025
  6.560000000000000E-006    3.281900543493515E-026
  6.580000000000000E-006   -3.784917505039324E-025
  6.599999999999999E-006   -7.731699831555568E-025
  6.619999999999999E-006   -7.604499071317422E-025
  6.639999999999999E-006   -1.222237175041697E-026
  6.660000000000001E-006    1.377384945544049E-024
  6.680000000000000E-006    2.634827832571980E-024
  6.700000000000000E-006    2.471816504211586E-024
  6.720000000000000E-006   -1.420904991859890E-025
  6.740000000000000E-006   -4.819191584815669E-024
  6.760000000000000E-006   -8.951320158370740E-024
  6.779999999999999E-006   -8.278303479967707E-024
  6.799999999999999E-006    5.871317105119718E-025
  6.819999999999999E-006    1.637482453158924E-023
  6.840000000000001E-006    3.048404764657639E-023
  6.860000000000000E-006    2.869870900809936E-023
  6.880000000000000E-006   -6.867655406245271E-025
  6.900000000000000E-006   -5.432400513945306E-023
  6.920000000000000E-006   -1.043290261122159E-022
  6.940000000000000E-006   -1.027157527335428E-022
  6.959999999999999E-006   -7.264788437410903E-024
  6.979999999999999E-006    1.762097012446573E-022
  6.999999999999999E-006    3.586757671792868E-022
  7.020000000000001E-006    3.765061966104841E-022
  7.040000000000000E-006    7.299528575449661E-023
  7.060000000000000E-006   -5.573478824968058E-022
  7.080000000000000E-006   -1.235104671782601E-021
  7.100000000000000E-006   -1.398977937678166E-021
  7.120000000000000E-006   -4.593447196490787E-022
  7.139999999999999E-006    1.705816824740666E-021
  7.159999999999999E-006    4.239912155780196E-021
  7.179999999999999E-006    5.217499845141665E-021
  7.200000000000001E-006    2.417230831825571E-021
  7.220000000000000E-006   -4.974793603807678E-021
  7.240000000000000E-006   -1.442378743252494E-020
  7.260000000000000E-006   -1.936941409157360E-020
  7.280000000000000E-006   -1.150739905222210E-020
  7.300000000000000E-006    1.340838291026305E-020
  7.319999999999999E-006    4.829195255050482E-020
  7.339999999999999E-006    7.110148140759886E-020
  7.359999999999999E-006    5.122326362505587E-020
  7.380000000000000E-006   -3.107005114225340E-020
  7.400000000000000E-006   -1.578567103825232E-019
  7.420000000000000E-006   -2.566579016802012E-019
  7.440000000000000E-006   -2.167073129324749E-019
  7.460000000000000E-006    4.728335600018693E-020
  7.480000000000000E-006    4.987708637852831E-019
  7.499999999999999E-006    9.065301365247477E-019
  7.519999999999999E-006    8.787703545354820E-019
  7.540000000000001E-006    6.566698567451851E-020
  7.560000000000000E-006   -1.502198836225850E-018
  7.580000000000000E-006   -3.117029791531965E-018
  7.600000000000000E-006   -3.429554924018459E-018
  7.620000000000000E-006   -1.066055860401777E-018
  7.640000000000000E-006    4.215778598570375E-018
  7.660000000000000E-006    1.037111175875153E-017
  7.679999999999999E-006    1.289742290141343E-017
  7.699999999999999E-006    6.609763438071854E-018
  7.720000000000001E-006   -1.053765990702349E-017
  7.740000000000000E-006   -3.312999073137305E-017
  7.760000000000000E-006   -4.669892032438199E-017
  7.780000000000000E-006   -3.241788554245407E-017
  7.800000000000000E-006    2.073583432816502E-017
  7.820000000000000E-006    1.004484155591951E-016
  7.839999999999999E-006    1.623482514006234E-016
  7.859999999999999E-006    1.407694123990577E-016
  7.879999999999999E-006   -1.430921055493670E-017
  7.900000000000001E-006   -2.836658330576752E-016
  7.920000000000000E-006   -5.392307264482297E-016
  7.940000000000000E-006   -5.617827184887720E-016
  7.960000000000000E-006   -1.465932384219206E-016
  7.980000000000000E-006    7.196211742948163E-016
  8.000000000000000E-006    1.697444937085488E-015
  8.019999999999999E-006    2.090740732106881E-015
  8.039999999999999E-006    1.124549322114482E-015
  8.059999999999999E-006   -1.499410382136201E-015
  8.080000000000001E-006   -4.997321749965573E-015
  8.100000000000000E-006   -7.287817242945286E-015
  8.120000000000000E-006   -5.632065469238031E-015
  8.140000000000000E-006    1.724402406337731E-015
  8.160000000000000E-006    1.343361067199426E-014
  8.180000000000000E-006    2.373778921499918E-014
  8.199999999999999E-006    2.358935950743293E-014
  8.219999999999999E-006    5.141898878601031E-015
  8.239999999999999E-006   -3.133229067596119E-014
  8.260000000000001E-006   -7.158692738438910E-014
  8.280000000000000E-006   -8.783775860991905E-014
  8.300000000000000E-006   -4.976439034349615E-014
  8.320000000000000E-006    5.450794423444129E-014
  8.340000000000000E-006    1.959365092599728E-013
  8.360000000000000E-006    2.962970753141198E-013
  8.379999999999999E-006    2.504963362146796E-013
  8.399999999999999E-006   -1.512337006102393E-014
  8.419999999999999E-006   -4.657232429118514E-013
  8.440000000000001E-006   -9.053081201943135E-013
  8.460000000000000E-006   -1.004177899557545E-012
  8.480000000000000E-006   -4.430773141746132E-013
  8.500000000000000E-006    8.481858722977822E-013
  8.520000000000000E-006    2.463247997754451E-012
  8.540000000000000E-006    3.473558645612936E-012
  8.559999999999999E-006    2.723476683051561E-012
  8.579999999999999E-006   -5.075686150211044E-013
  8.600000000000001E-006   -5.690529342061949E-012
  8.620000000000000E-006   -1.054793263305237E-011
  8.640000000000000E-006   -1.143591483639598E-011
  8.660000000000000E-006   -4.941521795290703E-012
  8.680000000000000E-006    9.586337340274724E-012
  8.700000000000000E-006    2.768655352144224E-011
  8.720000000000000E-006    3.935237281369839E-011
  8.739999999999999E-006    3.209988099892786E-011
  8.759999999999999E-006   -2.202951792492671E-012
  8.780000000000001E-006   -5.885848248825176E-011
  8.800000000000000E-006   -1.148302622665868E-010
  8.820000000000000E-006   -1.318682673391132E-010
  8.840000000000000E-006   -7.189608683901427E-011
  8.860000000000000E-006    7.747956602741447E-011
  8.880000000000000E-006    2.775585499749366E-010
  8.899999999999999E-006    4.300395931645129E-010
  8.919999999999999E-006    4.020507183702725E-010
  8.939999999999999E-006    9.025953914650985E-011
  8.960000000000001E-006   -4.921728354550663E-010
  8.980000000000000E-006   -1.147237268202128E-009
  9.000000000000000E-006   -1.498403719851654E-009
  9.020000000000000E-006   -1.115813358459297E-009
  9.040000000000000E-006    2.430339566354855E-010
  9.060000000000000E-006    2.355942169109083E-009
  9.079999999999999E-006    4.374186333864979E-009
  9.099999999999999E-006    4.952300163749716E-009
  9.119999999999999E-006    2.774194619331022E-009
  9.140000000000001E-006   -2.600989168362032E-009
  9.160000000000000E-006   -9.897215920232370E-009
  9.180000000000000E-006   -1.580943397894932E-008
  9.200000000000000E-006   -1.574972200055315E-008
  9.220000000000000E-006   -5.861023365712318E-009
  9.240000000000000E-006    1.413820970268628E-008
  9.259999999999999E-006    3.849537789706904E-008
  9.279999999999999E-006    5.509258395514797E-008
  9.299999999999999E-006    4.877800125428667E-008
  9.320000000000001E-006    8.635747507245979E-009
  9.340000000000000E-006   -6.273143739091282E-008
  9.360000000000000E-006   -1.422311866137961E-007
  9.380000000000000E-006   -1.872325578829662E-007
  9.400000000000000E-006   -1.487804852286409E-007
  9.420000000000000E-006    3.203864385714733E-009
  9.439999999999999E-006    2.502797144655315E-007
  9.459999999999999E-006    5.061659030459130E-007
  9.479999999999999E-006    6.254391009545244E-007
  9.500000000000001E-006    4.522586552629816E-007
  9.520000000000000E-006   -9.497036271991088E-008
  9.540000000000000E-006   -9.304501152137088E-007
  9.560000000000000E-006   -1.748209714390430E-006
  9.580000000000000E-006   -2.064492095473881E-006
  9.600000000000000E-006   -1.387994806613846E-006
  9.619999999999999E-006    5.032258833002999E-007
  9.639999999999999E-006    3.272706554548111E-006
  9.660000000000001E-006    5.881513672276575E-006
  9.680000000000000E-006    6.756117237522243E-006
  9.700000000000000E-006    4.356556391240794E-006
  9.720000000000000E-006   -1.940216593593159E-006
  9.740000000000000E-006   -1.095228863242078E-005
  9.760000000000000E-006   -1.929125293191530E-005
  9.780000000000000E-006   -2.194890748299859E-005
  9.799999999999999E-006   -1.411341074408481E-005
  9.819999999999999E-006    6.082429923073840E-006
  9.840000000000001E-006    3.485442487803488E-005
  9.860000000000000E-006    6.159467583764116E-005
  9.880000000000000E-006    7.072193617160716E-005
  9.900000000000000E-006    4.723622042077894E-005
  9.920000000000000E-006   -1.495351545325658E-005
  9.940000000000000E-006   -1.048392168351457E-004
  9.960000000000000E-006   -1.906643820646664E-004
  9.979999999999999E-006   -2.251828495776174E-004
  9.999999999999999E-006   -1.618427710546664E-004
  1.002000000000000E-005    2.070933947555210E-005
  1.004000000000000E-005    2.940694620601446E-004
  1.006000000000000E-005    5.680351501535963E-004
  1.008000000000000E-005    7.037213572279520E-004
  1.010000000000000E-005    5.581266195224695E-004
  1.012000000000000E-005    5.377903569799827E-005
  1.014000000000000E-005   -7.486619572534066E-004
  1.016000000000000E-005   -1.609419168497846E-003
  1.018000000000000E-005   -2.136138496108381E-003
  1.020000000000000E-005   -1.898259773915310E-003
  1.022000000000000E-005   -6.165499061133901E-004
  1.024000000000000E-005    1.627279209336800E-003
  1.026000000000000E-005    4.251525784092107E-003
  1.028000000000000E-005    6.205555423475123E-003
  1.030000000000000E-005    6.236283913924435E-003
  1.032000000000000E-005    3.375168448057081E-003
  1.034000000000000E-005   -2.478517982860440E-003
  1.036000000000000E-005   -1.010218920129253E-002
  1.038000000000000E-005   -1.688734885498318E-002
  1.040000000000000E-005   -1.937358969121745E-002
  1.042000000000000E-005   -1.440361640825749E-002
  1.044000000000000E-005   -6.582654095865226E-004
  1.046000000000000E-005    1.993862201776239E-002
  1.048000000000000E-005    4.161225714302735E-002
  1.050000000000000E-005    5.552438066350962E-002
  1.052000000000000E-005    5.220237353505729E-002
  1.054000000000000E-005    2.526095514920769E-002