 -1.200000000000000E-006    0.000000000000000E+000
 -1.180000000000000E-006    0.000000000000000E+000
 -1.160000000000000E-006    0.000000000000000E+000
 -1.140000000000000E-006    0.000000000000000E+000
 -1.120000000000000E-006    0.000000000000000E+000
 -1.100000000000000E-006    0.000000000000000E+000
 -1.080000000000000E-006    0.000000000000000E+000
 -1.060000000000000E-006    0.000000000000000E+000
 -1.040000000000000E-006    0.000000000000000E+000
 -1.020000000000000E-006    0.000000000000000E+000
 -1.000000000000000E-006    0.000000000000000E+000
 -9.799999999999999E-007    0.000000000000000E+000
 -9.599999999999999E-007    0.000000000000000E+000
 -9.399999999999999E-007    0.000000000000000E+000
 -9.199999999999999E-007    0.000000000000000E+000
 -9.000000000000000E-007    0.000000000000000E+000
 -8.799999999999999E-007    0.000000000000000E+000
 -8.599999999999999E-007    0.000000000000000E+000
 -8.400000000000000E-007    0.000000000000000E+000
 -8.200000000000000E-007    0.000000000000000E+000
 -8.000000000000000E-007    0.000000000000000E+000
 -7.799999999999999E-007    0.000000000000000E+000
 -7.599999999999999E-007    0.000000000000000E+000
 -7.399999999999999E-007    0.000000000000000E+000
 -7.199999999999999E-007    0.000000000000000E+000
 -7.000000000000000E-007    0.000000000000000E+000
 -6.799999999999999E-007    0.000000000000000E+000
 -6.599999999999999E-007    0.000000000000000E+000
 -6.399999999999999E-007    0.000000000000000E+000
 -6.199999999999999E-007    0.000000000000000E+000
 -6.000000000000000E-007    0.000000000000000E+000
 -5.800000000000000E-007    0.000000000000000E+000
 -5.599999999999999E-007    0.000000000000000E+000
 -5.399999999999999E-007    0.000000000000000E+000
 -5.199999999999999E-007    0.000000000000000E+000
 -5.000000000000000E-007    0.000000000000000E+000
 -4.800000000000000E-007    0.000000000000000E+000
 -4.599999999999999E-007    0.000000000000000E+000
 -4.399999999999999E-007    0.000000000000000E+000
 -4.199999999999999E-007    0.000000000000000E+000
 -4.000000000000000E-007    0.000000000000000E+000
 -3.800000000000000E-007    0.000000000000000E+000
 -3.599999999999999E-007    0.000000000000000E+000
 -3.399999999999999E-007    0.000000000000000E+000
 -3.199999999999999E-007    0.000000000000000E+000
 -2.999999999999999E-007    0.000000000000000E+000
 -2.800000000000000E-007    0.000000000000000E+000
 -2.599999999999999E-007    0.000000000000000E+000
 -2.399999999999998E-007    0.000000000000000E+000
 -2.200000000000000E-007    0.000000000000000E+000
 -2.000000000000000E-007    0.000000000000000E+000
 -1.800000000000000E-007    0.000000000000000E+000
 -1.600000000000000E-007    0.000000000000000E+000
 -1.399999999999999E-007    0.000000000000000E+000
 -1.199999999999999E-007    0.000000000000000E+000
 -9.999999999999989E-008    0.000000000000000E+000
 -7.999999999999987E-008    0.000000000000000E+000
 -5.999999999999985E-008    0.000000000000000E+000
 -3.999999999999983E-008    0.000000000000000E+000
 -2.000000000000002E-008    0.000000000000000E+000
  0.000000000000000E+000    0.000000000000000E+000
  2.000000000000002E-008    0.000000000000000E+000
  4.000000000000004E-008    0.000000000000000E+000
  6.000000000000006E-008    0.000000000000000E+000
  8.000000000000008E-008    0.000000000000000E+000
  1.000000000000001E-007    0.000000000000000E+000
  1.200000000000001E-007    0.000000000000000E+000
  1.400000000000001E-007    0.000000000000000E+000
  1.600000000000002E-007    0.000000000000000E+000
  1.800000000000002E-007    0.000000000000000E+000
  2.000000000000000E-007    0.000000000000000E+000
  2.200000000000000E-007    0.000000000000000E+000
  2.400000000000000E-007    0.000000000000000E+000
  2.600000000000001E-007    0.000000000000000E+000
  2.800000000000001E-007    0.000000000000000E+000
  3.000000000000001E-007    0.000000000000000E+000
  3.200000000000001E-007    0.000000000000000E+000
  3.400000000000001E-007    0.000000000000000E+000
  3.600000000000002E-007    0.000000000000000E+000
  3.800000000000002E-007    0.000000000000000E+000
  4.000000000000000E-007    0.000000000000000E+000
  4.200000000000000E-007    0.000000000000000E+000
  4.400000000000000E-007    0.000000000000000E+000
  4.600000000000000E-007    0.000000000000000E+000
  4.800000000000001E-007    0.000000000000000E+000
  5.000000000000001E-007    0.000000000000000E+000
  5.200000000000001E-007    0.000000000000000E+000
  5.400000000000001E-007    0.000000000000000E+000
  5.600000000000001E-007    0.000000000000000E+000
  5.800000000000002E-007    0.000000000000000E+000
  6.000000000000002E-007    0.000000000000000E+000
  6.200000000000000E-007    0.000000000000000E+000
  6.400000000000000E-007    0.000000000000000E+000
  6.600000000000000E-007    0.000000000000000E+000
  6.800000000000001E-007    0.000000000000000E+000
  7.000000000000001E-007    0.000000000000000E+000
  7.200000000000003E-007    0.000000000000000E+000
  7.400000000000001E-007    0.000000000000000E+000
  7.599999999999999E-007    0.000000000000000E+000
  7.800000000000002E-007    0.000000000000000E+000
  8.000000000000000E-007    0.000000000000000E+000
  8.200000000000002E-007    0.000000000000000E+000
  8.400000000000000E-007    0.000000000000000E+000
  8.600000000000002E-007    0.000000000000000E+000
  8.800000000000000E-007    0.000000000000000E+000
  9.000000000000003E-007    0.000000000000000E+000
  9.200000000000001E-007    0.000000000000000E+000
  9.399999999999999E-007    0.000000000000000E+000
  9.600000000000001E-007    0.000000000000000E+000
  9.799999999999999E-007    0.000000000000000E+000
  1.000000000000000E-006    0.000000000000000E+000
  1.020000000000000E-006    0.000000000000000E+000
  1.040000000000000E-006    0.000000000000000E+000
  1.060000000000000E-006    0.000000000000000E+000
  1.080000000000000E-006    0.000000000000000E+000
  1.100000000000000E-006    0.000000000000000E+000
  1.120000000000000E-006    0.000000000000000E+000
  1.140000000000000E-006    0.000000000000000E+000
  1.160000000000000E-006    0.000000000000000E+000
  1.180000000000000E-006    0.000000000000000E+000
  1.200000000000000E-006    0.000000000000000E+000
  1.220000000000000E-006    0.000000000000000E+000
  1.240000000000000E-006    0.000000000000000E+000
  1.260000000000000E-006    0.000000000000000E+000
  1.280000000000000E-006    0.000000000000000E+000
  1.300000000000000E-006    0.000000000000000E+000
  1.320000000000000E-006    0.000000000000000E+000
  1.340000000000000E-006    0.000000000000000E+000
  1.360000000000000E-006    0.000000000000000E+000
  1.380000000000000E-006    0.000000000000000E+000
  1.400000000000000E-006    0.000000000000000E+000
  1.420000000000000E-006    0.000000000000000E+000
  1.440000000000000E-006    0.000000000000000E+000
  1.460000000000000E-006    0.000000000000000E+000
  1.480000000000000E-006    0.000000000000000E+000
  1.500000000000000E-006    0.000000000000000E+000
  1.520000000000000E-006    0.000000000000000E+000
  1.540000000000000E-006    0.000000000000000E+000
  1.560000000000000E-006    0.000000000000000E+000
  1.580000000000000E-006    0.000000000000000E+000
  1.600000000000000E-006    0.000000000000000E+000
  1.620000000000000E-006    0.000000000000000E+000
  1.640000000000000E-006    0.000000000000000E+000
  1.660000000000000E-006    0.000000000000000E+000
  1.680000000000000E-006    0.000000000000000E+000
  1.700000000000000E-006    0.000000000000000E+000
  1.720000000000000E-006    0.000000000000000E+000
  1.740000000000000E-006    0.000000000000000E+000
  1.760000000000000E-006    0.000000000000000E+000
  1.780000000000000E-006    0.000000000000000E+000
  1.800000000000000E-006    0.000000000000000E+000
  1.820000000000000E-006    0.000000000000000E+000
  1.840000000000000E-006    0.000000000000000E+000
  1.860000000000000E-006    0.000000000000000E+000
  1.880000000000000E-006    0.000000000000000E+000
  1.900000000000000E-006    0.000000000000000E+000
  1.920000000000000E-006    0.000000000000000E+000
  1.940000000000000E-006    0.000000000000000E+000
  1.960000000000000E-006    0.000000000000000E+000
  1.980000000000000E-006    0.000000000000000E+000
  2.000000000000000E-006    0.000000000000000E+000
  2.020000000000000E-006    0.000000000000000E+000
  2.040000000000000E-006    0.000000000000000E+000
  2.060000000000000E-006    0.000000000000000E+000
  2.080000000000000E-006    0.000000000000000E+000
  2.100000000000000E-006    0.000000000000000E+000
  2.120000000000000E-006    0.000000000000000E+000
  2.140000000000000E-006    0.000000000000000E+000
  2.160000000000000E-006    0.000000000000000E+000
  2.180000000000000E-006    0.000000000000000E+000
  2.200000000000000E-006    0.000000000000000E+000
  2.220000000000000E-006    0.000000000000000E+000
  2.240000000000000E-006    0.000000000000000E+000
  2.260000000000000E-006    0.000000000000000E+000
  2.280000000000000E-006    0.000000000000000E+000
  2.300000000000000E-006    0.000000000000000E+000
  2.320000000000000E-006    0.000000000000000E+000
  2.340000000000000E-006    0.000000000000000E+000
  2.360000000000000E-006    0.000000000000000E+000
  2.380000000000000E-006    0.000000000000000E+000
  2.400000000000000E-006    0.000000000000000E+000
  2.420000000000000E-006    0.000000000000000E+000
  2.440000000000000E-006    0.000000000000000E+000
  2.460000000000000E-006    0.000000000000000E+000
  2.480000000000000E-006    0.000000000000000E+000
  2.500000000000000E-006    0.000000000000000E+000
  2.520000000000000E-006    0.000000000000000E+000
  2.540000000000000E-006    0.000000000000000E+000
  2.560000000000000E-006    0.000000000000000E+000
  2.580000000000000E-006    0.000000000000000E+000
  2.600000000000000E-006    0.000000000000000E+000
  2.620000000000000E-006    0.000000000000000E+000
  2.640000000000001E-006    0.000000000000000E+000
  2.660000000000000E-006    0.000000000000000E+000
  2.680000000000000E-006    0.000000000000000E+000
  2.700000000000000E-006    0.000000000000000E+000
  2.720000000000000E-006    0.000000000000000E+000
  2.740000000000000E-006    0.000000000000000E+000
  2.760000000000000E-006    0.000000000000000E+000
  2.780000000000000E-006    0.000000000000000E+000
  2.800000000000000E-006    0.000000000000000E+000
  2.820000000000001E-006    0.000000000000000E+000
  2.840000000000000E-006    0.000000000000000E+000
  2.860000000000000E-006    0.000000000000000E+000
  2.880000000000000E-006    0.000000000000000E+000
  2.900000000000000E-006    0.000000000000000E+000
  2.920000000000000E-006    0.000000000000000E+000
  2.940000000000000E-006    0.000000000000000E+000
  2.960000000000000E-006    0.000000000000000E+000
  2.980000000000000E-006    0.000000000000000E+000
  3.000000000000000E-006    0.000000000000000E+000
  3.020000000000000E-006    0.000000000000000E+000
  3.040000000000000E-006    0.000000000000000E+000
  3.060000000000000E-006    0.000000000000000E+000
  3.080000000000000E-006    0.000000000000000E+000
  3.100000000000000E-006    0.000000000000000E+000
  3.120000000000000E-006    0.000000000000000E+000
  3.140000000000000E-006    0.000000000000000E+000
  3.160000000000000E-006    0.000000000000000E+000
  3.180000000000000E-006    0.000000000000000E+000
  3.200000000000000E-006    0.000000000000000E+000
  3.220000000000000E-006    0.000000000000000E+000
  3.240000000000000E-006    0.000000000000000E+000
  3.260000000000001E-006    0.000000000000000E+000
  3.280000000000000E-006    0.000000000000000E+000
  3.300000000000000E-006    0.000000000000000E+000
  3.320000000000000E-006    0.000000000000000E+000
  3.340000000000000E-006    0.000000000000000E+000
  3.360000000000000E-006    0.000000000000000E+000
  3.380000000000000E-006    0.000000000000000E+000
  3.400000000000000E-006    0.000000000000000E+000
  3.420000000000000E-006    0.000000000000000E+000
  3.440000000000001E-006    0.000000000000000E+000
  3.460000000000000E-006    0.000000000000000E+000
  3.480000000000000E-006    0.000000000000000E+000
  3.500000000000000E-006    0.000000000000000E+000
  3.520000000000000E-006    0.000000000000000E+000
  3.540000000000000E-006    0.000000000000000E+000
  3.560000000000000E-006    0.000000000000000E+000
  3.580000000000000E-006    0.000000000000000E+000
  3.600000000000000E-006    0.000000000000000E+000
  3.620000000000000E-006    0.000000000000000E+000
  3.640000000000000E-006    0.000000000000000E+000
  3.660000000000000E-006    0.000000000000000E+000
  3.680000000000000E-006    0.000000000000000E+000
  3.700000000000001E-006    0.000000000000000E+000
  3.720000000000000E-006    0.000000000000000E+000
  3.740000000000000E-006    0.000000000000000E+000
  3.760000000000000E-006    0.000000000000000E+000
  3.780000000000000E-006    0.000000000000000E+000
  3.800000000000000E-006    0.000000000000000E+000
  3.820000000000001E-006    0.000000000000000E+000
  3.840000000000001E-006    0.000000000000000E+000
  3.860000000000000E-006    0.000000000000000E+000
  3.880000000000000E-006    0.000000000000000E+000
  3.900000000000000E-006    0.000000000000000E+000
  3.920000000000000E-006    0.000000000000000E+000
  3.940000000000000E-006    0.000000000000000E+000
  3.959999999999999E-006    0.000000000000000E+000
  3.980000000000001E-006    0.000000000000000E+000
  4.000000000000001E-006    0.000000000000000E+000
  4.020000000000000E-006    0.000000000000000E+000
  4.040000000000000E-006    0.000000000000000E+000
  4.060000000000000E-006    0.000000000000000E+000
  4.080000000000000E-006    0.000000000000000E+000
  4.100000000000000E-006    0.000000000000000E+000
  4.120000000000000E-006    0.000000000000000E+000
  4.139999999999999E-006    0.000000000000000E+000
  4.160000000000001E-006    0.000000000000000E+000
  4.180000000000001E-006    0.000000000000000E+000
  4.200000000000000E-006    0.000000000000000E+000
  4.220000000000000E-006    0.000000000000000E+000
  4.240000000000000E-006    0.000000000000000E+000
  4.260000000000000E-006    0.000000000000000E+000
  4.280000000000000E-006    0.000000000000000E+000
  4.299999999999999E-006    0.000000000000000E+000
  4.320000000000001E-006    0.000000000000000E+000
  4.340000000000001E-006    0.000000000000000E+000
  4.360000000000001E-006    0.000000000000000E+000
  4.380000000000000E-006    0.000000000000000E+000
  4.400000000000000E-006    0.000000000000000E+000
  4.420000000000000E-006    0.000000000000000E+000
  4.440000000000000E-006    0.000000000000000E+000
  4.460000000000000E-006    0.000000000000000E+000
  4.479999999999999E-006    0.000000000000000E+000
  4.500000000000001E-006    0.000000000000000E+000
  4.520000000000001E-006    0.000000000000000E+000
  4.540000000000001E-006    0.000000000000000E+000
  4.560000000000000E-006    0.000000000000000E+000
  4.580000000000000E-006    0.000000000000000E+000
  4.600000000000000E-006    0.000000000000000E+000
  4.620000000000000E-006    0.000000000000000E+000
  4.640000000000000E-006    0.000000000000000E+000
  4.659999999999999E-006    0.000000000000000E+000
  4.680000000000001E-006    0.000000000000000E+000
  4.700000000000001E-006    0.000000000000000E+000
  4.720000000000001E-006    0.000000000000000E+000
  4.740000000000000E-006    0.000000000000000E+000
  4.760000000000000E-006    0.000000000000000E+000
  4.780000000000000E-006    0.000000000000000E+000
  4.800000000000000E-006    0.000000000000000E+000
  4.820000000000000E-006    0.000000000000000E+000
  4.839999999999999E-006    0.000000000000000E+000
  4.860000000000001E-006    0.000000000000000E+000
  4.880000000000001E-006    0.000000000000000E+000
  4.900000000000001E-006    0.000000000000000E+000
  4.920000000000000E-006    0.000000000000000E+000
  4.940000000000000E-006    0.000000000000000E+000
  4.960000000000000E-006    0.000000000000000E+000
  4.980000000000000E-006    0.000000000000000E+000
  5.000000000000000E-006    0.000000000000000E+000
  5.019999999999999E-006    0.000000000000000E+000
  5.040000000000001E-006    0.000000000000000E+000
  5.060000000000001E-006    0.000000000000000E+000
  5.080000000000000E-006    0.000000000000000E+000
  5.100000000000000E-006    0.000000000000000E+000
  5.120000000000000E-006    0.000000000000000E+000
  5.140000000000000E-006    0.000000000000000E+000
  5.160000000000000E-006    0.000000000000000E+000
  5.180000000000000E-006    0.000000000000000E+000
  5.199999999999999E-006    0.000000000000000E+000
  5.220000000000001E-006    0.000000000000000E+000
  5.240000000000001E-006    0.000000000000000E+000
  5.260000000000000E-006    0.000000000000000E+000
  5.280000000000000E-006    0.000000000000000E+000
  5.300000000000000E-006    0.000000000000000E+000
  5.320000000000000E-006    0.000000000000000E+000
  5.340000000000000E-006    0.000000000000000E+000
  5.360000000000000E-006    0.000000000000000E+000
  5.380000000000001E-006    0.000000000000000E+000
  5.400000000000001E-006    0.000000000000000E+000
  5.420000000000001E-006    0.000000000000000E+000
  5.440000000000000E-006    0.000000000000000E+000
  5.460000000000000E-006    0.000000000000000E+000
  5.480000000000000E-006    0.000000000000000E+000
  5.500000000000000E-006    0.000000000000000E+000
  5.520000000000000E-006    0.000000000000000E+000
  5.539999999999999E-006    0.000000000000000E+000
  5.560000000000001E-006    0.000000000000000E+000
  5.580000000000001E-006    0.000000000000000E+000
  5.600000000000001E-006    0.000000000000000E+000
  5.620000000000000E-006    0.000000000000000E+000
  5.640000000000000E-006    0.000000000000000E+000
  5.660000000000000E-006    0.000000000000000E+000
  5.680000000000000E-006    0.000000000000000E+000
  5.700000000000000E-006    0.000000000000000E+000
  5.719999999999999E-006    0.000000000000000E+000
  5.740000000000001E-006    0.000000000000000E+000
  5.760000000000001E-006    0.000000000000000E+000
  5.780000000000001E-006    0.000000000000000E+000
  5.800000000000000E-006    0.000000000000000E+000
  5.820000000000000E-006    0.000000000000000E+000
  5.840000000000000E-006    0.000000000000000E+000
  5.860000000000000E-006    0.000000000000000E+000
  5.880000000000000E-006    0.000000000000000E+000
  5.899999999999999E-006    0.000000000000000E+000
  5.920000000000001E-006    0.000000000000000E+000
  5.940000000000001E-006    0.000000000000000E+000
  5.960000000000001E-006    0.000000000000000E+000
  5.980000000000000E-006    0.000000000000000E+000
  6.000000000000000E-006    0.000000000000000E+000
  6.020000000000000E-006    0.000000000000000E+000
  6.040000000000000E-006    0.000000000000000E+000
  6.060000000000000E-006    0.000000000000000E+000
  6.079999999999999E-006    0.000000000000000E+000
  6.100000000000001E-006    0.000000000000000E+000
  6.120000000000001E-006    0.000000000000000E+000
  6.140000000000001E-006    0.000000000000000E+000
  6.160000000000000E-006    0.000000000000000E+000
  6.180000000000000E-006    0.000000000000000E+000
  6.200000000000000E-006    0.000000000000000E+000
  6.220000000000000E-006    0.000000000000000E+000
  6.240000000000000E-006    0.000000000000000E+000
  6.260000000000001E-006    0.000000000000000E+000
  6.280000000000001E-006    0.000000000000000E+000
  6.300000000000001E-006    0.000000000000000E+000
  6.320000000000000E-006    0.000000000000000E+000
  6.340000000000000E-006    0.000000000000000E+000
  6.360000000000000E-006    0.000000000000000E+000
  6.380000000000000E-006    0.000000000000000E+000
  6.400000000000000E-006    0.000000000000000E+000
  6.420000000000000E-006    0.000000000000000E+000
  6.439999999999999E-006    0.000000000000000E+000
  6.459999999999999E-006    0.000000000000000E+000
  6.480000000000001E-006    0.000000000000000E+000
  6.500000000000000E-006    0.000000000000000E+000
  6.520000000000000E-006    0.000000000000000E+000
  6.540000000000000E-006    0.000000000000000E+000
  6.560000000000000E-006    0.000000000000000E+000
  6.580000000000000E-006    0.000000000000000E+000
  6.599999999999999E-006    0.000000000000000E+000
  6.619999999999999E-006    0.000000000000000E+000
  6.639999999999999E-006    0.000000000000000E+000
  6.660000000000001E-006    0.000000000000000E+000
  6.680000000000000E-006    0.000000000000000E+000
  6.700000000000000E-006    0.000000000000000E+000
  6.720000000000000E-006    0.000000000000000E+000
  6.740000000000000E-006    0.000000000000000E+000
  6.760000000000000E-006    0.000000000000000E+000
  6.779999999999999E-006    0.000000000000000E+000
  6.799999999999999E-006    0.000000000000000E+000
  6.819999999999999E-006    0.000000000000000E+000
  6.840000000000001E-006    0.000000000000000E+000
  6.860000000000000E-006    0.000000000000000E+000
  6.880000000000000E-006    0.000000000000000E+000
  6.900000000000000E-006    0.000000000000000E+000
  6.920000000000000E-006    0.000000000000000E+000
  6.940000000000000E-006    0.000000000000000E+000
  6.959999999999999E-006    0.000000000000000E+000
  6.979999999999999E-006    0.000000000000000E+000
  6.999999999999999E-006    0.000000000000000E+000
  7.020000000000001E-006    0.000000000000000E+000
  7.040000000000000E-006    0.000000000000000E+000
  7.060000000000000E-006    0.000000000000000E+000
  7.080000000000000E-006    0.000000000000000E+000
  7.100000000000000E-006    0.000000000000000E+000
  7.120000000000000E-006    0.000000000000000E+000
  7.139999999999999E-006    0.000000000000000E+000
  7.159999999999999E-006    0.000000000000000E+000
  7.179999999999999E-006    0.000000000000000E+000
  7.200000000000001E-006    0.000000000000000E+000
  7.220000000000000E-006    0.000000000000000E+000
  7.240000000000000E-006    0.000000000000000E+000
  7.260000000000000E-006    0.000000000000000E+000
  7.280000000000000E-006    0.000000000000000E+000
  7.300000000000000E-006    0.000000000000000E+000
  7.319999999999999E-006    0.000000000000000E+000
  7.339999999999999E-006    0.000000000000000E+000
  7.359999999999999E-006    0.000000000000000E+000
  7.380000000000000E-006    0.000000000000000E+000
  7.400000000000000E-006    0.000000000000000E+000
  7.420000000000000E-006    0.000000000000000E+000
  7.440000000000000E-006    0.000000000000000E+000
  7.460000000000000E-006    0.000000000000000E+000
  7.480000000000000E-006    0.000000000000000E+000
  7.499999999999999E-006    0.000000000000000E+000
  7.519999999999999E-006    0.000000000000000E+000
  7.540000000000001E-006    0.000000000000000E+000
  7.560000000000000E-006    0.000000000000000E+000
  7.580000000000000E-006    0.000000000000000E+000
  7.600000000000000E-006    0.000000000000000E+000
  7.620000000000000E-006    0.000000000000000E+000
  7.640000000000000E-006    0.000000000000000E+000
  7.660000000000000E-006    0.000000000000000E+000
  7.679999999999999E-006    0.000000000000000E+000
  7.699999999999999E-006    0.000000000000000E+000
  7.720000000000001E-006    0.000000000000000E+000
  7.740000000000000E-006    0.000000000000000E+000
  7.760000000000000E-006    0.000000000000000E+000
  7.780000000000000E-006    0.000000000000000E+000
  7.800000000000000E-006    0.000000000000000E+000
  7.820000000000000E-006    0.000000000000000E+000
  7.839999999999999E-006    0.000000000000000E+000
  7.859999999999999E-006    0.000000000000000E+000
  7.879999999999999E-006    0.000000000000000E+000
  7.900000000000001E-006    0.000000000000000E+000
  7.920000000000000E-006    0.000000000000000E+000
  7.940000000000000E-006    0.000000000000000E+000
  7.960000000000000E-006    0.000000000000000E+000
  7.980000000000000E-006    0.000000000000000E+000
  8.000000000000000E-006    0.000000000000000E+000
  8.019999999999999E-006    0.000000000000000E+000
  8.039999999999999E-006    0.000000000000000E+000
  8.059999999999999E-006    0.000000000000000E+000
  8.080000000000001E-006    0.000000000000000E+000
  8.100000000000000E-006    0.000000000000000E+000
  8.120000000000000E-006    0.000000000000000E+000
  8.140000000000000E-006    0.000000000000000E+000
  8.160000000000000E-006    2.786710724517392E-037
  8.180000000000000E-006    5.579550875737297E-037
  8.199999999999999E-006   -3.581971504224877E-037
  8.219999999999999E-006   -1.271034474878423E-036
  8.239999999999999E-006   -1.363470520562421E-036
  8.260000000000001E-006    5.694155851183503E-037
  8.280000000000000E-006    2.874122782736274E-036
  8.300000000000000E-006    1.692618023149781E-036
  8.320000000000000E-006   -1.772398123327320E-036
  8.340000000000000E-006   -3.323279860352499E-036
  8.360000000000000E-006   -9.208031705387289E-037
  8.379999999999999E-006    2.356065765390093E-036
  8.399999999999999E-006    5.893594462258404E-036
  8.419999999999999E-006    7.273793339918120E-036
  8.440000000000001E-006    3.120594649651067E-036
  8.460000000000000E-006   -1.006106154781995E-035
  8.480000000000000E-006   -2.676117509053069E-035
  8.500000000000000E-006   -3.116111120172531E-035
  8.520000000000000E-006   -3.481563684098105E-036
  8.540000000000000E-006    5.316392991590375E-035
  8.559999999999999E-006    1.056464527628653E-034
  8.579999999999999E-006    1.018162607538689E-034
  8.600000000000001E-006   -1.033012675994279E-035
  8.620000000000000E-006   -2.181749687722891E-034
  8.640000000000000E-006   -3.941562235264555E-034
  8.660000000000000E-006   -3.266016907202971E-034
  8.680000000000000E-006    1.475316245134121E-034
  8.700000000000000E-006    9.178049551435921E-034
  8.720000000000000E-006    1.454687561750213E-033
  8.739999999999999E-006    9.897472177467376E-034
  8.759999999999999E-006   -9.199479292449149E-034
  8.780000000000001E-006   -3.655379059445034E-033
  8.800000000000000E-006   -5.181297309190531E-033
  8.820000000000000E-006   -2.830464858461736E-033
  8.840000000000000E-006    4.556370970687472E-033
  8.860000000000000E-006    1.410017947481217E-032
  8.880000000000000E-006    1.812830308236671E-032
  8.899999999999999E-006    7.567427356000155E-033
  8.919999999999999E-006   -2.020362231463020E-032
  8.939999999999999E-006   -5.295950269012611E-032
  8.960000000000001E-006   -6.252611605667984E-032
  8.980000000000000E-006   -1.851272864272170E-032
  9.000000000000000E-006    8.354896380646786E-032
  9.020000000000000E-006    1.947607794946294E-031
  9.040000000000000E-006    2.137110508788171E-031
  9.060000000000000E-006    3.954314732657824E-032
  9.079999999999999E-006   -3.289163817040519E-031
  9.099999999999999E-006   -7.043166389366302E-031
  9.119999999999999E-006   -7.274431789373980E-031
  9.140000000000001E-006   -6.476474870915630E-032
  9.160000000000000E-006    1.247038493553514E-030
  9.180000000000000E-006    2.513737005116180E-030
  9.200000000000000E-006    2.478160111039575E-030
  9.220000000000000E-006    3.466746313244689E-032
  9.240000000000000E-006   -4.585352831018450E-030
  9.259999999999999E-006   -8.878879717769484E-030
  9.279999999999999E-006   -8.485999154148717E-030
  9.299999999999999E-006    2.877424281632199E-031
  9.320000000000001E-006    1.642136120286798E-029
  9.340000000000000E-006    3.110013430377968E-029
  9.360000000000000E-006    2.930612372111786E-029
  9.380000000000000E-006   -1.459965422857049E-030
  9.400000000000000E-006   -5.741154886389914E-029
  9.420000000000000E-006   -1.081589198325336E-028
  9.439999999999999E-006   -1.022505255760026E-028
  9.459999999999999E-006    3.237751388538800E-030
  9.479999999999999E-006    1.960801129864322E-028
  9.500000000000001E-006    3.736254214274524E-028
  9.520000000000000E-006    3.604459650644675E-028
  9.540000000000000E-006    6.876570708066418E-030
  9.560000000000000E-006   -6.536074700254709E-028
  9.580000000000000E-006   -1.281446926341526E-027
  9.600000000000000E-006   -1.281552685682544E-027
  9.619999999999999E-006   -1.252631584539722E-028
  9.639999999999999E-006    2.120519930925618E-027
  9.660000000000001E-006    4.358092549612795E-027
  9.680000000000000E-006    4.581566494057658E-027
  9.700000000000000E-006    9.063831345811835E-028
  9.720000000000000E-006   -6.660861245621661E-027
  9.740000000000000E-006   -1.466563634801294E-026
  9.760000000000000E-006   -1.640298267628705E-026
  9.780000000000000E-006   -5.127471430101324E-027
  9.799999999999999E-006    2.007260631157550E-026
  9.819999999999999E-006    4.868426040461012E-026
  9.840000000000001E-006    5.854722912763238E-026
  9.860000000000000E-006    2.554936767227710E-026
  9.880000000000000E-006   -5.708786314045199E-026
  9.900000000000000E-006   -1.587734477531229E-025
  9.920000000000000E-006   -2.073654649266989E-025
  9.940000000000000E-006   -1.172412717659947E-025
  9.960000000000000E-006    1.483207295777043E-025
  9.979999999999999E-006    5.059168261975758E-025
  9.999999999999999E-006    7.253706472141192E-025
  1.002000000000000E-005    5.061693920622653E-025
  1.004000000000000E-005   -3.247410579076480E-025
  1.006000000000000E-005   -1.563105170974863E-024
  1.008000000000000E-005   -2.493881449137813E-024
  1.010000000000000E-005   -2.079702032229522E-024
  1.012000000000000E-005    4.284774444421362E-025
  1.014000000000000E-005    4.630533265949712E-024
  1.016000000000000E-005    8.383503775446273E-024
  1.018000000000000E-005    8.182804755002580E-024
  1.020000000000000E-005    9.811592522326442E-025
  1.022000000000000E-005   -1.291296411322718E-023
  1.024000000000000E-005   -2.739015526203742E-023
  1.026000000000000E-005   -3.092621411082621E-023
  1.028000000000000E-005   -1.173753618020176E-023
  1.030000000000000E-005    3.273083215956001E-023
  1.032000000000000E-005    8.630950847490481E-023
  1.034000000000000E-005    1.123567471282650E-022
  1.036000000000000E-005    6.733304897457732E-023
  1.038000000000000E-005   -6.919653997867820E-023
  1.040000000000000E-005   -2.594911497613384E-022
  1.042000000000000E-005   -3.918975822554591E-022
  1.044000000000000E-005   -3.124543945820046E-022
  1.046000000000000E-005    8.427949106625708E-023
  1.048000000000000E-005    7.316217318051410E-022
  1.050000000000000E-005    1.307880256474157E-021
  1.052000000000000E-005    1.292635923091953E-021
  1.054000000000000E-005    2.265530755803057E-022