 -1.200000000000000E-006    0.000000000000000E+000
 -1.180000000000000E-006    0.000000000000000E+000
 -1.160000000000000E-006    0.000000000000000E+000
 -1.140000000000000E-006    0.000000000000000E+000
 -1.120000000000000E-006    0.000000000000000E+000
 -1.100000000000000E-006    0.000000000000000E+000
 -1.080000000000000E-006    0.000000000000000E+000
 -1.060000000000000E-006    0.000000000000000E+000
 -1.040000000000000E-006    0.000000000000000E+000
 -1.020000000000000E-006    0.000000000000000E+000
 -1.000000000000000E-006    0.000000000000000E+000
 -9.799999999999999E-007    0.000000000000000E+000
 -9.599999999999999E-007    0.000000000000000E+000
 -9.399999999999999E-007    0.000000000000000E+000
 -9.199999999999999E-007    0.000000000000000E+000
 -9.000000000000000E-007    0.000000000000000E+000
 -8.799999999999999E-007    0.000000000000000E+000
 -8.599999999999999E-007    0.000000000000000E+000
 -8.400000000000000E-007   -4.729961606586950E-033
 -8.200000000000000E-007    3.754438632460613E-031
 -8.000000000000000E-007   -1.319279721779741E-029
 -7.799999999999999E-007    2.824594934060287E-028
 -7.599999999999999E-007   -4.199861405645428E-027
 -7.399999999999999E-007    4.650354423008067E-026
 -7.199999999999999E-007   -3.999123442729420E-025
 -7.000000000000000E-007    2.743555628273810E-024
 -6.799999999999999E-007   -1.527414226189640E-023
 -6.599999999999999E-007    6.967286857943920E-023
 -6.399999999999999E-007   -2.608505194218905E-022
 -6.199999999999999E-007    7.931044085564505E-022
 -6.000000000000000E-007   -1.883069224682579E-021
 -5.800000000000000E-007    3.036524551940776E-021
 -5.599999999999999E-007   -8.411060736702450E-022
 -5.399999999999999E-007   -1.467628885421708E-020
 -5.199999999999999E-007    5.909685256067091E-020
 -5.000000000000000E-007   -1.280937574968495E-019
 -4.800000000000000E-007    1.233954093710149E-019
 -4.599999999999999E-007    2.252452564094033E-019
 -4.399999999999999E-007   -1.217075226167519E-018
 -4.199999999999999E-007    2.499147915133626E-018
 -4.000000000000000E-007   -1.967500819070680E-018
 -3.800000000000000E-007   -4.542017297651801E-018
 -3.599999999999999E-007    1.997163868207740E-017
 -3.399999999999999E-007   -3.460956987403110E-017
 -3.199999999999999E-007    8.945106269241853E-018
 -2.999999999999999E-007    1.102835571846669E-016
 -2.800000000000000E-007   -2.745714521152590E-016
 -2.599999999999999E-007    2.011268432346419E-016
 -2.399999999999998E-007    4.235115729929908E-016
 -2.200000000000000E-007   -1.358559920591953E-015
 -2.000000000000000E-007    1.633524909151071E-015
 -1.800000000000000E-007    1.729611692628117E-016
 -1.600000000000000E-007   -5.843665385783140E-015
 -1.399999999999999E-007    1.284094993428676E-014
 -1.199999999999999E-007   -4.296170623791773E-015
 -9.999999999999989E-008   -3.382547176442591E-014
 -7.999999999999987E-008    5.785361659481774E-014
 -5.999999999999985E-008    3.533851310056114E-015
 -3.999999999999983E-008   -1.018581040627745E-013
 -2.000000000000002E-008    1.361259002639431E-013
  0.000000000000000E+000   -1.420133941035956E-013
  2.000000000000002E-008   -1.146012349733891E-013
  4.000000000000004E-008    9.680201909062076E-013
  6.000000000000006E-008   -9.142456817429974E-013
  8.000000000000008E-008   -1.744851966143686E-012
  1.000000000000001E-007    3.177708065230065E-012
  1.200000000000001E-007    3.491455993692830E-013
  1.400000000000001E-007   -3.011350978991650E-012
  1.600000000000002E-007    4.133814043109191E-012
  1.800000000000002E-007   -7.902695624365162E-012
  2.000000000000000E-007   -5.761587435450927E-012
  2.200000000000000E-007    3.048981640966562E-011
  2.400000000000000E-007   -6.794089166584766E-012
  2.600000000000001E-007   -3.230517772792721E-011
  2.800000000000001E-007    3.272958060749785E-011
  3.000000000000001E-007   -5.817042685385652E-011
  3.200000000000001E-007   -5.292785103444633E-011
  3.400000000000001E-007    2.676291209009818E-010
  3.600000000000002E-007    9.475408934624647E-011
  3.800000000000002E-007   -3.793303324134595E-010
  4.000000000000000E-007   -3.153878816002131E-010
  4.200000000000000E-007   -1.935581147978123E-010
  4.400000000000000E-007    7.848778315142007E-010
  4.600000000000000E-007    1.953989987200743E-009
  4.800000000000001E-007   -8.014074386822129E-010
  5.000000000000001E-007   -3.903061151637113E-009
  5.200000000000001E-007   -1.100587171348641E-009
  5.400000000000001E-007    2.515742628772526E-009
  5.600000000000001E-007    4.326987080456380E-009
  5.800000000000002E-007    4.597615780502215E-009
  6.000000000000002E-007   -3.039693128750676E-009
  6.200000000000000E-007   -9.000145952416951E-009
  6.400000000000000E-007   -5.890066696201877E-009
  6.600000000000000E-007   -7.632450553530216E-009
  6.800000000000001E-007    3.166114688099743E-009
  7.000000000000001E-007    3.482476473578889E-008
  7.200000000000003E-007    3.565683860061197E-008
  7.400000000000001E-007    1.967016336385795E-009
  7.599999999999999E-007   -4.420397290460520E-008
  7.800000000000002E-007   -1.178579802648026E-007
  8.000000000000000E-007   -1.257423863264902E-007
  8.200000000000002E-007    3.074200675768278E-008
  8.400000000000000E-007    2.781643122410670E-007
  8.600000000000002E-007    4.954377714927563E-007
  8.800000000000000E-007    3.638924868523294E-007
  9.000000000000003E-007   -4.558243135943896E-007
  9.200000000000001E-007   -1.476303075138718E-006
  9.399999999999999E-007   -1.660878791193743E-006
  9.600000000000001E-007   -3.127022389165498E-007
  9.799999999999999E-007    2.625816565731032E-006
  1.000000000000000E-006    5.493520083317834E-006
  1.020000000000000E-006    4.950453975430998E-006
  1.040000000000000E-006   -1.167407976493119E-006
  1.060000000000000E-006   -1.153599037856501E-005
  1.080000000000000E-006   -1.958992100348906E-005
  1.100000000000000E-006   -1.428272313367522E-005
  1.120000000000000E-006    1.060444922602647E-005
  1.140000000000000E-006    4.608544614591657E-005
  1.160000000000000E-006    6.648841451412600E-005
  1.180000000000000E-006    3.821066203842170E-005
  1.200000000000000E-006   -5.313735369347595E-005
  1.220000000000000E-006   -1.685097416812438E-004
  1.240000000000000E-006   -2.147740307555170E-004
  1.260000000000000E-006   -9.392974623580075E-005
  1.280000000000000E-006    2.106907986053748E-004
  1.300000000000000E-006    5.549986197887337E-004
  1.320000000000000E-006    6.549623113477286E-004
  1.340000000000000E-006    2.494743614794637E-004
  1.360000000000000E-006   -6.669891417585162E-004
  1.380000000000000E-006   -1.669685771685196E-003
  1.400000000000000E-006   -1.972736056437779E-003
  1.420000000000000E-006   -8.567442552073949E-004
  1.440000000000000E-006    1.719760121139146E-003
  1.460000000000000E-006    4.681883710388059E-003
  1.480000000000000E-006    5.957531418264155E-003
  1.500000000000000E-006    3.443943470573800E-003
  1.520000000000000E-006   -3.404749916401847E-003
  1.540000000000000E-006   -1.221747346943528E-002
  1.560000000000000E-006   -1.764564918359927E-002
  1.580000000000000E-006   -1.347184255893050E-002
  1.600000000000000E-006    3.320190035440943E-003
  1.620000000000000E-006    2.844939404100456E-002
  1.640000000000000E-006    4.907024324250077E-002
  1.660000000000000E-006    4.776694407779966E-002
  1.680000000000000E-006    1.213204076055932E-002
  1.700000000000000E-006   -5.372710126901593E-002
  1.720000000000000E-006   -0.122665297506665     
  1.740000000000000E-006   -0.149812714641656     
  1.760000000000000E-006   -9.267047132614575E-002
  1.780000000000000E-006    5.926823894353313E-002
  1.800000000000000E-006    0.259985505487125     
  1.820000000000000E-006    0.406081463749764     
  1.840000000000000E-006    0.372903728330560     
  1.860000000000000E-006    8.424605810151600E-002
  1.880000000000000E-006   -0.412728763494631     
  1.900000000000000E-006   -0.914049830819458     
  1.920000000000000E-006    -1.10997845572035     
  1.940000000000000E-006   -0.729808516257505     
  1.960000000000000E-006    0.269178446386311     
  1.980000000000000E-006     1.57181556129670     
  2.000000000000000E-006     2.54347241996392     
  2.020000000000000E-006     2.48308320526938     
  2.040000000000000E-006     1.01706298076544     
  2.060000000000000E-006    -1.55971052308896     
  2.080000000000000E-006    -4.22440817018862     
  2.100000000000000E-006    -5.57664029043577     
  2.120000000000000E-006    -4.51520515229340     
  2.140000000000000E-006   -0.931736832328005     
  2.160000000000000E-006     3.98422353418041     
  2.180000000000000E-006     8.10473840318035     
  2.200000000000000E-006     9.33653068136584     
  2.220000000000000E-006     6.77313514856629     
  2.240000000000000E-006     1.36622962934911     
  2.260000000000000E-006    -4.42666637137899     
  2.280000000000000E-006    -8.08962496426236     
  2.300000000000000E-006    -9.01403879917481     
  2.320000000000000E-006    -9.88759811621649     
  2.340000000000000E-006    -16.3680053872547     
  2.360000000000000E-006    -34.5012711845621     
  2.380000000000000E-006    -66.4389627456244     
  2.400000000000000E-006    -106.151155657640     
  2.420000000000000E-006    -137.390062877589     
  2.440000000000000E-006    -135.643800961259     
  2.460000000000000E-006    -74.2381913015360     
  2.480000000000000E-006     67.3455522749491     
  2.500000000000000E-006     296.571173314326     
  2.520000000000000E-006     606.399887405703     
  2.540000000000000E-006     982.051299192656     
  2.560000000000000E-006     1416.15484323807     
  2.580000000000000E-006     1929.18708665274     
  2.600000000000000E-006     2589.23873253032     
  2.620000000000000E-006     3523.81335506736     
  2.640000000000001E-006     4917.34394980599     
  2.660000000000000E-006     6992.37501567259     
  2.680000000000000E-006     9979.34974772734     
  2.700000000000000E-006     14086.7459844542     
  2.720000000000000E-006     19485.9754699938     
  2.740000000000000E-006     26320.7755383482     
  2.760000000000000E-006     34738.1730530648     
  2.780000000000000E-006     44923.2864400283     
  2.800000000000000E-006     57111.6489227975     
  2.820000000000001E-006     71557.7903648765     
  2.840000000000000E-006     88456.6868053981     
  2.860000000000000E-006     107835.293577855     
  2.880000000000000E-006     129445.646649504     
  2.900000000000000E-006     152688.071527686     
  2.920000000000000E-006     176576.198113215     
  2.940000000000000E-006     199736.199919406     
  2.960000000000000E-006     220421.664106479     
  2.980000000000000E-006     236525.797353327     
  3.000000000000000E-006     245588.858786587     
  3.020000000000000E-006     244821.708623250     
  3.040000000000000E-006     231176.873525810     
  3.060000000000000E-006     201506.412790154     
  3.080000000000000E-006     152828.932953568     
  3.100000000000000E-006     82690.2054518135     
  3.120000000000000E-006    -10432.8290444046     
  3.140000000000000E-006    -126768.277652546     
  3.160000000000000E-006    -264991.033879017     
  3.180000000000000E-006    -422084.631644803     
  3.200000000000000E-006    -593279.507383624     
  3.220000000000000E-006    -772015.962155251     
  3.240000000000000E-006    -949920.983872979     
  3.260000000000001E-006    -1116876.53145768     
  3.280000000000000E-006    -1261317.72492578     
  3.300000000000000E-006    -1370849.56615730     
  3.320000000000000E-006    -1433174.51438322     
  3.340000000000000E-006    -1437186.51972728     
  3.360000000000000E-006    -1374027.51179552     
  3.380000000000000E-006    -1237979.54457057     
  3.400000000000000E-006    -1027157.05923851     
  3.420000000000000E-006    -744019.288042528     
  3.440000000000001E-006    -395710.226795007     
  3.460000000000000E-006     5852.49700730341     
  3.480000000000000E-006     444275.066144436     
  3.500000000000000E-006     899415.236904449     
  3.520000000000000E-006     1348491.90000861     
  3.540000000000000E-006     1767442.13146607     
  3.560000000000000E-006     2132391.57589338     
  3.580000000000000E-006     2421200.05699401     
  3.600000000000000E-006     2615054.26078171     
  3.620000000000000E-006     2699990.00967633     
  3.640000000000000E-006     2668139.97936378     
  3.660000000000000E-006     2518490.39982801     
  3.680000000000000E-006     2257027.33184674     
  3.700000000000001E-006     1896331.79156321     
  3.720000000000000E-006     1454791.88094942     
  3.740000000000000E-006     955567.106045466     
  3.760000000000000E-006     425279.355360833     
  3.780000000000000E-006    -107677.818053482     
  3.800000000000000E-006    -615198.242832603     
  3.820000000000001E-006    -1071584.93235657     
  3.840000000000001E-006    -1455387.73157868     
  3.860000000000000E-006    -1750703.05868502     
  3.880000000000000E-006    -1947899.69102840     
  3.900000000000000E-006    -2043935.11529988     
  3.920000000000000E-006    -2042413.05174865     
  3.940000000000000E-006    -1953322.96307154     
  3.959999999999999E-006    -1792193.99019590     
  3.980000000000001E-006    -1578399.11995000     
  4.000000000000001E-006    -1332750.98063323     
  4.020000000000000E-006    -1074952.45625788     
  4.040000000000000E-006    -821543.779897938     
  4.060000000000000E-006    -584771.421716908     
  4.080000000000000E-006    -372383.330603690     
  4.100000000000000E-006    -187975.739642974     
  4.120000000000000E-006    -31430.2588519966     
  4.139999999999999E-006     100748.609309972     
  4.160000000000001E-006     214889.601999288     
  4.180000000000001E-006     318851.700310889     
  4.200000000000000E-006     419809.115207165     
  4.220000000000000E-006     521674.269603333     
  4.240000000000000E-006     623127.681296949     
  4.260000000000000E-006     717174.164216677     
  4.280000000000000E-006     792560.890029048     
  4.299999999999999E-006     836480.584706996     
  4.320000000000001E-006     837368.206539588     
  4.340000000000001E-006     786817.568933344     
  4.360000000000001E-006     680624.172072939     
  4.380000000000000E-006     519754.010707926     
  4.400000000000000E-006     311688.914032593     
  4.420000000000000E-006     71560.4833125023     
  4.440000000000000E-006    -178006.693295564     
  4.460000000000000E-006    -409088.150310538     
  4.479999999999999E-006    -592568.483852489     
  4.500000000000001E-006    -703017.350169643     
  4.520000000000001E-006    -722731.035717190     
  4.540000000000001E-006    -644020.845007360     
  4.560000000000000E-006    -470164.034894935     
  4.580000000000000E-006    -215973.020098529     
  4.600000000000000E-006     92108.2459131800     
  4.620000000000000E-006     417665.062908546     
  4.640000000000000E-006     718502.969132550     
  4.659999999999999E-006     952587.035821974     
  4.680000000000001E-006     1084155.43593953     
  4.700000000000001E-006     1088663.42862965     
  4.720000000000001E-006     955863.681199111     
  4.740000000000000E-006     691218.617197303     
  4.760000000000000E-006     316395.820619217     
  4.780000000000000E-006    -131062.658390715     
  4.800000000000000E-006    -600301.570964382     
  4.820000000000000E-006    -1033410.37422345     
  4.839999999999999E-006    -1374306.94028758     
  4.860000000000001E-006    -1576858.77124586     
  4.880000000000001E-006    -1609968.19752083     
  4.900000000000001E-006    -1460136.06087781     
  4.920000000000000E-006    -1132972.27456226     
  4.940000000000000E-006    -654165.641832643     
  4.960000000000000E-006    -69270.3755043512     
  4.980000000000000E-006     559129.916112954     
  5.000000000000000E-006     1158370.33115039     
  5.019999999999999E-006     1656454.39770372     
  5.040000000000001E-006     1993013.37606448     
  5.060000000000001E-006     2125977.72007537     
  5.080000000000000E-006     2033496.32979758     
  5.100000000000000E-006     1714748.01637725     
  5.120000000000000E-006     1191920.18618012     
  5.140000000000000E-006     511512.958373751     
  5.160000000000000E-006    -258091.240711104     
  5.180000000000000E-006    -1033883.00516811     
  5.199999999999999E-006    -1729211.23693390     
  5.220000000000001E-006    -2265920.19776218     
  5.240000000000001E-006    -2583918.77769309     
  5.260000000000000E-006    -2645490.86080294     
  5.280000000000000E-006    -2436121.60664455     
  5.300000000000000E-006    -1966171.94333569     
  5.320000000000000E-006    -1273701.45477599     
  5.340000000000000E-006    -423890.104778935     
  5.360000000000000E-006     497824.955381203     
  5.380000000000001E-006     1396715.31329175     
  5.400000000000001E-006     2179981.54196851     
  5.420000000000001E-006     2766379.64475267     
  5.440000000000000E-006     3093738.55725023     
  5.460000000000000E-006     3123784.92131289     
  5.480000000000000E-006     2845171.68042274     
  5.500000000000000E-006     2276468.81172833     
  5.520000000000000E-006     1467493.37665340     
  5.539999999999999E-006     494960.315501263     
  5.560000000000001E-006    -547522.320401123     
  5.580000000000001E-006    -1560353.43028807     
  5.600000000000001E-006    -2446460.23424666     
  5.620000000000000E-006    -3118747.52126179     
  5.640000000000000E-006    -3508318.70185339     
  5.660000000000000E-006    -3572094.81638677     
  5.680000000000000E-006    -3297775.65796671     
  5.700000000000000E-006    -2706033.06880256     
  5.719999999999999E-006    -1849357.55221157     
  5.740000000000001E-006    -806068.690275572     
  5.760000000000001E-006     328955.212511268     
  5.780000000000001E-006     1453023.05317255     
  5.800000000000000E-006     2462974.86408339     
  5.820000000000000E-006     3263559.05392238     
  5.840000000000000E-006     3777531.96607006     
  5.860000000000000E-006     3954265.54366044     
  5.880000000000000E-006     3774198.32332500     
  5.899999999999999E-006     3250167.73265251     
  5.920000000000001E-006     2426554.43681023     
  5.940000000000001E-006     1375179.35626524     
  5.960000000000001E-006     188263.258578053     
  5.980000000000000E-006    -1029574.68393794     
  6.000000000000000E-006    -2169925.75273411     
  6.020000000000000E-006    -3130609.39160382     
  6.040000000000000E-006    -3825885.95164506     
  6.060000000000000E-006    -4193865.91529180     
  6.079999999999999E-006    -4200366.57211918     
  6.100000000000001E-006    -3841462.39158739     
  6.120000000000001E-006    -3145190.76749211     
  6.140000000000001E-006    -2169932.80443909     
  6.160000000000000E-006    -998903.609904221     
  6.180000000000000E-006     267373.355010318     
  6.200000000000000E-006     1519815.92503257     
  6.220000000000000E-006     2650839.94715941     
  6.240000000000000E-006     3564295.20889846     
  6.260000000000001E-006     4183018.11301329     
  6.280000000000001E-006     4453827.80908097     
  6.300000000000001E-006     4351806.68567108     
  6.320000000000000E-006     3883627.19345575     
  6.340000000000000E-006     3087382.17840709     
  6.360000000000000E-006     2028743.36133915     
  6.380000000000000E-006     795432.752145567     
  6.400000000000000E-006    -509788.890330554     
  6.420000000000000E-006    -1778219.64174364     
  6.439999999999999E-006    -2905176.99407744     
  6.459999999999999E-006    -3798541.70137187     
  6.480000000000001E-006    -4385129.24424449     
  6.500000000000000E-006    -4616196.37221422     
  6.520000000000000E-006    -4472193.78718389     
  6.540000000000000E-006    -3964633.85791817     
  6.560000000000000E-006    -3134538.23572683     
  6.580000000000000E-006    -2048830.76862587     
  6.599999999999999E-006    -794961.359197645     
  6.619999999999999E-006     526359.628928268     
  6.639999999999999E-006     1809363.99500166     
  6.660000000000001E-006     2951381.67628849     
  6.680000000000000E-006     3860628.80298693     
  6.700000000000000E-006     4463897.52426558     
  6.720000000000000E-006     4713492.81620952     
  6.740000000000000E-006     4591084.59298772     
  6.760000000000000E-006     4107684.58388085     
  6.779999999999999E-006     3301531.32565318     
  6.799999999999999E-006     2235013.76313167     
  6.819999999999999E-006     990675.490363593     
  6.840000000000001E-006    -334041.024766611     
  6.860000000000000E-006    -1634279.17810980     
  6.880000000000000E-006    -2807189.70149579     
  6.900000000000000E-006    -3761301.43628445     
  6.920000000000000E-006    -4424055.86325800     
  6.940000000000000E-006    -4746317.49435640     
  6.959999999999999E-006    -4704319.76638695     
  6.979999999999999E-006    -4300978.54529900     
  6.999999999999999E-006    -3566662.72233825     
  7.020000000000001E-006    -2557920.74260622     
  7.040000000000000E-006    -1353421.49518571     
  7.060000000000000E-006    -46921.0074518975     
  7.080000000000000E-006     1261477.06197524     
  7.100000000000000E-006     2473201.73554532     
  7.120000000000000E-006     3497657.63751745     
  7.139999999999999E-006     4257981.65582327     
  7.159999999999999E-006     4696425.53710209     
  7.179999999999999E-006     4779583.66094014     
  7.200000000000001E-006     4502085.55164010     
  7.220000000000000E-006     3886722.82831368     
  7.240000000000000E-006     2981574.83312101     
  7.260000000000000E-006     1855566.95207885     
  7.280000000000000E-006     593060.937713654     
  7.300000000000000E-006    -711875.270922056     
  7.319999999999999E-006    -1962032.58894368     
  7.339999999999999E-006    -3064711.47680400     
  7.359999999999999E-006    -3938713.77388730     
  7.380000000000000E-006    -4520060.71920684     
  7.400000000000000E-006    -4766732.13275586     
  7.420000000000000E-006    -4661549.04634043     
  7.440000000000000E-006    -4213284.70477262     
  7.460000000000000E-006    -3456423.62492174     
  7.480000000000000E-006    -2448496.21699100     
  7.499999999999999E-006    -1265055.02863297     
  7.519999999999999E-006     6744.21645640885     
  7.540000000000001E-006     1275060.07884731     
  7.560000000000000E-006     2449019.04997099     
  7.580000000000000E-006     3443650.35607913     
  7.600000000000000E-006     4186250.66640922     
  7.620000000000000E-006     4622905.86988757     
  7.640000000000000E-006     4723085.56751650     
  7.660000000000000E-006     4481920.83890009     
  7.679999999999999E-006     3919500.38132895     
  7.699999999999999E-006     3077941.51126819     
  7.720000000000001E-006     2018134.77706224     
  7.740000000000000E-006     816008.048092059     
  7.760000000000000E-006    -442052.998090714     
  7.780000000000000E-006    -1665056.32145919     
  7.800000000000000E-006    -2765147.83273743     
  7.820000000000000E-006    -3664746.47789117     
  7.839999999999999E-006    -4301122.15919005     
  7.859999999999999E-006    -4630233.66871570     
  7.879999999999999E-006    -4629917.88840451     
  7.900000000000001E-006    -4301207.55012528     
  7.920000000000000E-006    -3668495.63853939     
  7.940000000000000E-006    -2778184.42889596     
  7.960000000000000E-006    -1695023.52766563     
  7.980000000000000E-006    -496731.144665273     
  8.000000000000000E-006     732433.544148746     
  8.019999999999999E-006     1907164.23924484     
  8.039999999999999E-006     2945172.68104157     
  8.059999999999999E-006     3773036.16518766     
  8.080000000000001E-006     4333218.03924071     
  8.100000000000000E-006     4588152.90546501     
  8.120000000000000E-006     4521730.55269254     
  8.140000000000000E-006     4140026.28496374     
  8.160000000000000E-006     3470961.05014779     
  8.180000000000000E-006     2562467.84706348     
  8.199999999999999E-006     1478822.10003781     
  8.219999999999999E-006     296011.147103915     
  8.239999999999999E-006    -902841.839196197     
  8.260000000000001E-006    -2033796.97209173     
  8.280000000000000E-006    -3019424.81051791     
  8.300000000000000E-006    -3793345.22482815     
  8.320000000000000E-006    -4303093.34648094     
  8.340000000000000E-006    -4514023.21532249     
  8.360000000000000E-006    -4412637.45758845     
  8.379999999999999E-006    -4007678.66917916     
  8.399999999999999E-006    -3329011.49503443     
  8.419999999999999E-006    -2424927.74374177     
  8.440000000000001E-006    -1358812.22764881     
  8.460000000000000E-006    -204478.804174249     
  8.480000000000000E-006     959443.664658663     
  8.500000000000000E-006     2053842.49587160     
  8.520000000000000E-006     3003607.71543051     
  8.540000000000000E-006     3744032.72861643     
  8.559999999999999E-006     4226088.95988636     
  8.579999999999999E-006     4418848.22805433     
  8.600000000000001E-006     4310898.01294950     
  8.620000000000000E-006     3911216.01750536     
  8.640000000000000E-006     3248598.07364580     
  8.660000000000000E-006     2369105.99240922     
  8.680000000000000E-006     1332555.43415702     
  8.700000000000000E-006     209542.596530047     
  8.720000000000000E-006    -922664.454560913     
  8.739999999999999E-006    -1986796.15777984     
  8.759999999999999E-006    -2911813.59543175     
  8.780000000000001E-006    -3636874.72783193     
  8.800000000000000E-006    -4114744.38089060     
  8.820000000000000E-006    -4314963.40528481     
  8.840000000000000E-006    -4225551.01891307     
  8.860000000000000E-006    -3853380.65679453     
  8.880000000000000E-006    -3224117.92753087     
  8.899999999999999E-006    -2381359.15346491     
  8.919999999999999E-006    -1383406.41814949     
  8.939999999999999E-006    -298048.014745383     
  8.960000000000001E-006     802268.950063474     
  8.980000000000000E-006     1844558.63517302     
  9.000000000000000E-006     2759928.60986893     
  9.020000000000000E-006     3488168.75314950     
  9.040000000000000E-006     3981395.57876971     
  9.060000000000000E-006     4207399.00877080     
  9.079999999999999E-006     4152805.58455015     
  9.099999999999999E-006     3823879.16126171     
  9.119999999999999E-006     3244078.38018290     
  9.140000000000001E-006     2451682.65408352     
  9.160000000000000E-006     1499192.87067821     
  9.180000000000000E-006     451098.308282464     
  9.200000000000000E-006    -621653.325241526     
  9.220000000000000E-006    -1647722.84787472     
  9.240000000000000E-006    -2559968.50059737     
  9.259999999999999E-006    -3299224.72094569     
  9.279999999999999E-006    -3818338.54793666     
  9.299999999999999E-006    -4085202.70686395     
  9.320000000000001E-006    -4083316.28766216     
  9.340000000000000E-006    -3812652.73172351     
  9.360000000000000E-006    -3291890.19621497     
  9.380000000000000E-006    -2557621.52691874     
  9.400000000000000E-006    -1659927.77382812     
  9.420000000000000E-006    -658169.026399396     
  9.439999999999999E-006     382286.654592517     
  9.459999999999999E-006     1393446.52821533     
  9.479999999999999E-006     2309011.02167260     
  9.500000000000001E-006     3069585.34042378     
  9.520000000000000E-006     3626522.78120065     
  9.540000000000000E-006     3944587.48490401     
  9.560000000000000E-006     4004748.00878845     
  9.580000000000000E-006     3804770.64506921     
  9.600000000000000E-006     3358282.04843607     
  9.619999999999999E-006     2695031.05453716     
  9.639999999999999E-006     1859637.79387883     
  9.660000000000001E-006     907702.663904011     
  9.680000000000000E-006    -98232.5055323949     
  9.700000000000000E-006    -1093002.70310671     
  9.720000000000000E-006    -2012819.30277695     
  9.740000000000000E-006    -2798461.44262762     
  9.760000000000000E-006    -3399566.65526186     
  9.780000000000000E-006    -3778278.91075441     
  9.799999999999999E-006    -3911129.86572484     
  9.819999999999999E-006    -3791244.29449361     
  9.840000000000001E-006    -3428544.50734558     
  9.860000000000000E-006    -2847377.24923510     
  9.880000000000000E-006    -2085369.20725019     
  9.900000000000000E-006    -1191935.86436503     
  9.920000000000000E-006    -224995.119849715     
  9.940000000000000E-006     752212.844132349     
  9.960000000000000E-006     1675964.94034012     
  9.979999999999999E-006     2487649.42745912     
  9.999999999999999E-006     3136615.73504169     
  1.002000000000000E-005     3582402.12710794     
  1.004000000000000E-005     3797199.36564541     
  1.006000000000000E-005     3767449.71897500     
  1.008000000000000E-005     3496001.07799030     
  1.010000000000000E-005     3002175.78488088     
  1.012000000000000E-005     2318727.44757622     
  1.014000000000000E-005     1490151.69337810     
  1.016000000000000E-005     570500.368388630     
  1.018000000000000E-005    -381538.528027158     
  1.020000000000000E-005    -1305809.56432721     
  1.022000000000000E-005    -2143015.71865987     
  1.024000000000000E-005    -2839324.43035797     
  1.026000000000000E-005    -3350812.39893683     
  1.028000000000000E-005    -3646563.90489513     
  1.030000000000000E-005    -3709729.33641777     
  1.032000000000000E-005    -3536951.33025100     
  1.034000000000000E-005    -3139923.58777144     
  1.036000000000000E-005    -2545959.36211397     
  1.038000000000000E-005    -1793757.14962746     
  1.040000000000000E-005    -930565.642803320     
  1.042000000000000E-005    -11694.2753576373     
  1.044000000000000E-005     903540.548326580     
  1.046000000000000E-005     1757228.45505698     
  1.048000000000000E-005     2496045.39433266     
  1.050000000000000E-005     3073585.95933490     
  1.052000000000000E-005     3453202.42396477     
  1.054000000000000E-005     3612104.95467450     