 -1.200000000000000E-006    0.000000000000000E+000
 -1.180000000000000E-006    0.000000000000000E+000
 -1.160000000000000E-006    0.000000000000000E+000
 -1.140000000000000E-006    0.000000000000000E+000
 -1.120000000000000E-006    0.000000000000000E+000
 -1.100000000000000E-006    0.000000000000000E+000
 -1.080000000000000E-006    0.000000000000000E+000
 -1.060000000000000E-006    0.000000000000000E+000
 -1.040000000000000E-006    0.000000000000000E+000
 -1.020000000000000E-006    0.000000000000000E+000
 -1.000000000000000E-006    0.000000000000000E+000
 -9.799999999999999E-007    0.000000000000000E+000
 -9.599999999999999E-007    0.000000000000000E+000
 -9.399999999999999E-007    0.000000000000000E+000
 -9.199999999999999E-007    0.000000000000000E+000
 -9.000000000000000E-007    0.000000000000000E+000
 -8.799999999999999E-007    0.000000000000000E+000
 -8.599999999999999E-007    0.000000000000000E+000
 -8.400000000000000E-007    0.000000000000000E+000
 -8.200000000000000E-007    0.000000000000000E+000
 -8.000000000000000E-007    0.000000000000000E+000
 -7.799999999999999E-007    0.000000000000000E+000
 -7.599999999999999E-007    0.000000000000000E+000
 -7.399999999999999E-007    0.000000000000000E+000
 -7.199999999999999E-007    0.000000000000000E+000
 -7.000000000000000E-007    0.000000000000000E+000
 -6.799999999999999E-007    0.000000000000000E+000
 -6.599999999999999E-007    0.000000000000000E+000
 -6.399999999999999E-007    0.000000000000000E+000
 -6.199999999999999E-007    0.000000000000000E+000
 -6.000000000000000E-007    0.000000000000000E+000
 -5.800000000000000E-007    0.000000000000000E+000
 -5.599999999999999E-007    0.000000000000000E+000
 -5.399999999999999E-007    0.000000000000000E+000
 -5.199999999999999E-007    0.000000000000000E+000
 -5.000000000000000E-007    0.000000000000000E+000
 -4.800000000000000E-007    0.000000000000000E+000
 -4.599999999999999E-007    0.000000000000000E+000
 -4.399999999999999E-007    0.000000000000000E+000
 -4.199999999999999E-007    0.000000000000000E+000
 -4.000000000000000E-007    0.000000000000000E+000
 -3.800000000000000E-007    3.643087910156559E-038
 -3.599999999999999E-007    2.707462441071212E-038
 -3.399999999999999E-007    2.280526526735358E-037
 -3.199999999999999E-007   -1.240436873168470E-036
 -2.999999999999999E-007    4.314882841055362E-036
 -2.800000000000000E-007   -1.076514745269636E-035
 -2.599999999999999E-007    1.932391255701287E-035
 -2.399999999999998E-007   -1.189164111146967E-035
 -2.200000000000000E-007   -6.421731730120489E-035
 -2.000000000000000E-007    3.444518940173983E-034
 -1.800000000000000E-007   -9.913721326904293E-034
 -1.600000000000000E-007    1.818066052826120E-033
 -1.399999999999999E-007   -1.266028569563110E-033
 -1.199999999999999E-007   -5.145920269630413E-033
 -9.999999999999989E-008    2.427166998325196E-032
 -7.999999999999987E-008   -5.553891843889505E-032
 -5.999999999999985E-008    6.320455445477489E-032
 -3.999999999999983E-008    6.074988058970626E-032
 -2.000000000000002E-008   -4.754581218248010E-031
  0.000000000000000E+000    1.154983097494411E-030
  2.000000000000002E-008   -1.305435898653043E-030
  4.000000000000004E-008   -1.191706304106330E-030
  6.000000000000006E-008    8.700748533057360E-030
  8.000000000000008E-008   -1.866800132227388E-029
  1.000000000000001E-007    1.508423898400909E-029
  1.200000000000001E-007    3.237549415569730E-029
  1.400000000000001E-007   -1.384514571635215E-028
  1.600000000000002E-007    2.259637988744460E-028
  1.800000000000002E-007   -5.043223597146352E-029
  2.000000000000000E-007   -6.883400485505963E-028
  2.200000000000000E-007    1.787883478026222E-027
  2.400000000000000E-007   -1.718202665682255E-027
  2.600000000000001E-007   -2.124238971213853E-027
  2.800000000000001E-007    1.019935682715516E-026
  3.000000000000001E-007   -1.526541863461295E-026
  3.200000000000001E-007    6.846081070211144E-028
  3.400000000000001E-007    4.616869061239663E-026
  3.600000000000002E-007   -9.849222883260238E-026
  3.800000000000002E-007    5.988560064220030E-026
  4.000000000000000E-007    1.748825316081399E-025
  4.200000000000000E-007   -5.139230166477823E-025
  4.400000000000000E-007    4.891521284183689E-025
  4.600000000000000E-007    5.084434497363537E-025
  4.800000000000001E-007   -2.325767544801621E-024
  5.000000000000001E-007    2.913642751912104E-024
  5.200000000000001E-007    1.062117171052628E-024
  5.400000000000001E-007   -9.525779815734139E-024
  5.600000000000001E-007    1.373324899779797E-023
  5.800000000000002E-007   -3.370365720679633E-025
  6.000000000000002E-007   -3.370721393415149E-023
  6.200000000000000E-007    6.254705635286076E-023
  6.400000000000000E-007   -2.060852767452642E-023
  6.600000000000000E-007   -1.337934625909992E-022
  6.800000000000001E-007    2.542928804672109E-022
  7.000000000000001E-007   -5.367033612361107E-023
  7.200000000000003E-007   -4.384354917595677E-022
  7.400000000000001E-007    7.531770624867751E-022
  7.599999999999999E-007   -4.265857237479200E-022
  7.800000000000002E-007   -1.064060077405445E-021
  8.000000000000000E-007    3.240987629866040E-021
  8.200000000000002E-007   -1.976586070234382E-021
  8.400000000000000E-007   -5.335184725363839E-021
  8.600000000000002E-007    9.867898407183351E-021
  8.800000000000000E-007   -2.039352983100017E-021
  9.000000000000003E-007   -1.230563242077702E-020
  9.200000000000001E-007    2.419454156133465E-020
  9.399999999999999E-007   -1.690300144515817E-020
  9.600000000000001E-007   -3.636089284114847E-020
  9.799999999999999E-007    8.574618429471100E-020
  1.000000000000000E-006   -2.947454704622341E-020
  1.020000000000000E-006   -1.065576318281259E-019
  1.040000000000000E-006    2.184057565172543E-019
  1.060000000000000E-006   -1.132767211925144E-019
  1.080000000000000E-006   -4.001094192573684E-019
  1.100000000000000E-006    5.925226173721181E-019
  1.120000000000000E-006    2.074832934256956E-019
  1.140000000000000E-006   -6.161090798632267E-019
  1.160000000000000E-006    6.758798723920208E-019
  1.180000000000000E-006   -1.287791676333662E-018
  1.200000000000000E-006   -1.972402373912325E-018
  1.220000000000000E-006    5.309512915261139E-018
  1.240000000000000E-006    2.535810170458253E-018
  1.260000000000000E-006   -6.402853766001335E-018
  1.280000000000000E-006   -2.724325519377734E-019
  1.300000000000000E-006   -5.436234179984047E-018
  1.320000000000000E-006   -8.454089050410632E-018
  1.340000000000000E-006    2.929032314843783E-017
  1.360000000000000E-006    2.568444865525080E-017
  1.380000000000000E-006   -2.502378584079060E-017
  1.400000000000000E-006   -3.154847122509430E-017
  1.420000000000000E-006   -7.435853018342391E-017
  1.440000000000000E-006   -4.496746767075483E-017
  1.460000000000000E-006    2.275014460326218E-016
  1.480000000000000E-006    2.631207229471910E-016
  1.500000000000000E-006   -1.102144218059758E-016
  1.520000000000000E-006   -3.871258157937031E-016
  1.540000000000000E-006   -6.135006767457297E-016
  1.560000000000000E-006   -2.939576450220428E-016
  1.580000000000000E-006    1.187143100665893E-015
  1.600000000000000E-006    1.899777803650448E-015
  1.620000000000000E-006    6.830709027451253E-016
  1.640000000000000E-006   -1.522786043417204E-015
  1.660000000000000E-006   -4.967296649266338E-015
  1.680000000000000E-006   -5.462348951274177E-015
  1.700000000000000E-006    2.794048334747819E-015
  1.720000000000000E-006    1.319526349978552E-014
  1.740000000000000E-006    1.558283348535982E-014
  1.760000000000000E-006    4.008393823880724E-015
  1.780000000000000E-006   -2.617813434949080E-014
  1.800000000000000E-006   -5.195780785328046E-014
  1.820000000000000E-006   -3.202459793726489E-014
  1.840000000000000E-006    3.711633281943628E-014
  1.860000000000000E-006    1.232458968187973E-013
  1.880000000000000E-006    1.524763928440548E-013
  1.900000000000000E-006    1.675005963507361E-014
  1.920000000000000E-006   -2.615496879499701E-013
  1.940000000000000E-006   -4.663780492835115E-013
  1.960000000000000E-006   -3.385029377579201E-013
  1.980000000000000E-006    2.862427439550038E-013
  2.000000000000000E-006    1.168215440375665E-012
  2.020000000000000E-006    1.483261742686756E-012
  2.040000000000000E-006    4.316465451109522E-013
  2.060000000000000E-006   -1.972360477066922E-012
  2.080000000000000E-006   -4.386280332062527E-012
  2.100000000000000E-006   -4.120900509516856E-012
  2.120000000000000E-006    9.178550361841126E-013
  2.140000000000000E-006    9.258028378103850E-012
  2.160000000000000E-006    1.496734300873006E-011
  2.180000000000000E-006    9.790941242443857E-012
  2.200000000000000E-006   -1.042498960818960E-011
  2.220000000000000E-006   -3.701826646505733E-011
  2.240000000000000E-006   -4.743018866139418E-011
  2.260000000000000E-006   -1.750570700612475E-011
  2.280000000000000E-006    5.599143165428875E-011
  2.300000000000000E-006    1.336802303638954E-010
  2.320000000000000E-006    1.390276966883082E-010
  2.340000000000000E-006    8.340162230481228E-012
  2.360000000000000E-006   -2.367739960942579E-010
  2.380000000000000E-006   -4.443809772145680E-010
  2.400000000000000E-006   -3.791053644405671E-010
  2.420000000000000E-006    1.077085296262473E-010
  2.440000000000000E-006    8.685468676052192E-010
  2.460000000000000E-006    1.384703101050322E-009
  2.480000000000000E-006    9.824464271297392E-010
  2.500000000000000E-006   -6.437789083433569E-010
  2.520000000000000E-006   -2.879466964380018E-009
  2.540000000000000E-006   -4.114079587887781E-009
  2.560000000000000E-006   -2.511309136768161E-009
  2.580000000000000E-006    2.495320930864212E-009
  2.600000000000000E-006    8.825062474019426E-009
  2.620000000000000E-006    1.182010739981744E-008
  2.640000000000001E-006    6.615632104137315E-009
  2.660000000000000E-006   -7.802186572956856E-009
  2.680000000000000E-006   -2.524552379015686E-008
  2.700000000000000E-006   -3.301266802886201E-008
  2.720000000000000E-006   -1.848745803639313E-008
  2.740000000000000E-006    2.039290397748293E-008
  2.760000000000000E-006    6.713381727986070E-008
  2.780000000000000E-006    8.912067019475024E-008
  2.800000000000000E-006    5.444271916133183E-008
  2.820000000000001E-006   -4.257951135263394E-008
  2.840000000000000E-006   -1.626862506698049E-007
  2.860000000000000E-006   -2.279934674902395E-007
  2.880000000000000E-006   -1.612622783188232E-007
  2.900000000000000E-006    5.600666653244236E-008
  2.920000000000000E-006    3.420320023579038E-007
  2.940000000000000E-006    5.287479001013197E-007
  2.960000000000000E-006    4.457472453920095E-007
  2.980000000000000E-006    4.053204066551847E-008
  3.000000000000000E-006   -5.415799715952697E-007
  3.020000000000000E-006   -9.944378240006170E-007
  3.040000000000000E-006   -1.019550947136105E-006
  3.060000000000000E-006   -5.368646844627048E-007
  3.080000000000000E-006    2.267960160565917E-007
  3.100000000000000E-006    8.956366090557005E-007
  3.120000000000000E-006    1.292082703409726E-006
  3.140000000000000E-006    1.683162292346395E-006
  3.160000000000000E-006    2.550052902882186E-006
  3.180000000000000E-006    3.771173623099354E-006
  3.200000000000000E-006    3.716549206684680E-006
  3.220000000000000E-006   -6.666595311996954E-007
  3.240000000000000E-006   -1.176054219873180E-005
  3.260000000000001E-006   -2.737103709832693E-005
  3.280000000000000E-006   -3.734882966107257E-005
  3.300000000000000E-006   -2.482199041263054E-005
  3.320000000000000E-006    2.452261253211731E-005
  3.340000000000000E-006    1.061434789474655E-004
  3.360000000000000E-006    1.818096194597860E-004
  3.380000000000000E-006    1.808828887501029E-004
  3.400000000000000E-006    3.088466074503669E-005
  3.420000000000000E-006   -2.833951800789959E-004
  3.440000000000001E-006   -6.574333493052676E-004
  3.460000000000000E-006   -8.492452177024498E-004
  3.480000000000000E-006   -5.562207817544250E-004
  3.500000000000000E-006    3.999380669422943E-004
  3.520000000000000E-006    1.839985843143222E-003
  3.540000000000000E-006    3.085905338261199E-003
  3.560000000000000E-006    3.083742893772309E-003
  3.580000000000000E-006    8.891851272936533E-004
  3.600000000000000E-006   -3.580066492257357E-003
  3.620000000000000E-006   -8.875693734033751E-003
  3.640000000000000E-006   -1.195759660616679E-002
  3.660000000000000E-006   -9.183319880859929E-003
  3.680000000000000E-006    1.642650195645841E-003
  3.700000000000001E-006    1.885694010703466E-002
  3.720000000000000E-006    3.552903756072899E-002
  3.740000000000000E-006    4.059253374473635E-002
  3.760000000000000E-006    2.332495430782249E-002
  3.780000000000000E-006   -1.967631121533662E-002
  3.800000000000000E-006   -7.793785680579979E-002
  3.820000000000001E-006   -0.125281341279850     
  3.840000000000001E-006   -0.126520163313410     
  3.860000000000000E-006   -5.338308604771695E-002
  3.880000000000000E-006    9.480283287819077E-002
  3.900000000000000E-006    0.275334236782478     
  3.920000000000000E-006    0.403072039326907     
  3.940000000000000E-006    0.376239029125253     
  3.959999999999999E-006    0.125022105818891     
  3.980000000000001E-006   -0.333032648428308     
  4.000000000000001E-006   -0.858367047136485     
  4.020000000000000E-006    -1.20446765974871     
  4.040000000000000E-006    -1.09767900355885     
  4.060000000000000E-006   -0.368479103706889     
  4.080000000000000E-006    0.912458687063608     
  4.100000000000000E-006     2.36241480339586     
  4.120000000000000E-006     3.34285894489491     
  4.139999999999999E-006     3.16703512602838     
  4.160000000000001E-006     1.41398847853059     
  4.180000000000001E-006    -1.76596416882784     
  4.200000000000000E-006    -5.50584448417333     
  4.220000000000000E-006    -8.36104404955819     
  4.240000000000000E-006    -8.75925296125900     
  4.260000000000000E-006    -5.64723506847595     
  4.280000000000000E-006    0.904918544825614     
  4.299999999999999E-006     9.42488578451987     
  4.320000000000001E-006     17.2849713416539     
  4.340000000000001E-006     21.4767167865587     
  4.360000000000001E-006     19.6707175649487     
  4.380000000000000E-006     11.1404691599189     
  4.400000000000000E-006    -2.87981274681815     
  4.420000000000000E-006    -19.6313407764143     
  4.440000000000000E-006    -35.9347716553829     
  4.460000000000000E-006    -49.4755085869835     
  4.479999999999999E-006    -59.6040751846319     
  4.500000000000001E-006    -67.1145678758098     
  4.520000000000001E-006    -72.9006060816104     
  4.540000000000001E-006    -75.9721397585683     
  4.560000000000000E-006    -71.7634563055648     
  4.580000000000000E-006    -51.7031400381836     
  4.600000000000000E-006    -4.52300868472862     
  4.620000000000000E-006     81.1362248274884     
  4.640000000000000E-006     214.235148635898     
  4.659999999999999E-006     400.895665378461     
  4.680000000000001E-006     647.664667363114     
  4.700000000000001E-006     968.932673810170     
  4.720000000000001E-006     1397.19732191389     
  4.740000000000000E-006     1993.31636325053     
  4.760000000000000E-006     2853.20376780865     
  4.780000000000000E-006     4108.26613346189     
  4.800000000000000E-006     5919.08381815400     
  4.820000000000000E-006     8464.52831269973     
  4.839999999999999E-006     11930.5751460576     
  4.860000000000001E-006     16503.2838024534     
  4.880000000000001E-006     22368.1738982180     
  4.900000000000001E-006     29714.0967830762     
  4.920000000000000E-006     38735.6388783905     
  4.940000000000000E-006     49624.9549144463     
  4.960000000000000E-006     62545.3991396966     
  4.980000000000000E-006     77582.7390160937     
  5.000000000000000E-006     94677.6082028721     
  5.019999999999999E-006     113548.707634710     
  5.040000000000001E-006     133619.847097014     
  5.060000000000001E-006     153964.337346396     
  5.080000000000000E-006     173275.920343085     
  5.100000000000000E-006     189869.468888421     
  5.120000000000000E-006     201710.080214234     
  5.140000000000000E-006     206470.620005579     
  5.160000000000000E-006     201619.858247922     
  5.180000000000000E-006     184546.593401592     
  5.199999999999999E-006     152726.680028219     
  5.220000000000001E-006     103939.012881997     
  5.240000000000001E-006     36525.9959432143     
  5.260000000000000E-006    -50318.1152272118     
  5.280000000000000E-006    -156259.129523403     
  5.300000000000000E-006    -279566.219235189     
  5.320000000000000E-006    -416920.185479124     
  5.340000000000000E-006    -563319.088458572     
  5.360000000000000E-006    -712105.054708010     
  5.380000000000001E-006    -855128.089116617     
  5.400000000000001E-006    -983057.944999679     
  5.420000000000001E-006    -1085851.54686207     
  5.440000000000000E-006    -1153366.58635562     
  5.460000000000000E-006    -1176101.94890357     
  5.480000000000000E-006    -1146006.22699397     
  5.500000000000000E-006    -1057300.74728577     
  5.520000000000000E-006    -907233.754064777     
  5.539999999999999E-006    -696670.328313820     
  5.560000000000001E-006    -430449.674642588     
  5.580000000000001E-006    -117453.027756817     
  5.600000000000001E-006     229646.554190923     
  5.620000000000000E-006     594960.244817934     
  5.640000000000000E-006     960263.686679760     
  5.660000000000000E-006     1306111.62611864     
  5.680000000000000E-006     1613101.22542920     
  5.700000000000000E-006     1863189.96134433     
  5.719999999999999E-006     2040960.34304528     
  5.740000000000001E-006     2134725.52584902     
  5.760000000000001E-006     2137400.03534756     
  5.780000000000001E-006     2047082.03160241     
  5.800000000000000E-006     1867301.83211189     
  5.820000000000000E-006     1606891.05124144     
  5.840000000000000E-006     1279458.13011546     
  5.860000000000000E-006     902478.850820021     
  5.880000000000000E-006     496068.044259663     
  5.899999999999999E-006     81520.6633716598     
  5.920000000000001E-006    -320206.261660588     
  5.940000000000001E-006    -689889.279134503     
  5.960000000000001E-006    -1011198.03137342     
  5.980000000000000E-006    -1271535.74991220     
  6.000000000000000E-006    -1462523.52683937     
  6.020000000000000E-006    -1580161.11807313     
  6.040000000000000E-006    -1624729.14075306     
  6.060000000000000E-006    -1600460.12238204     
  6.079999999999999E-006    -1515006.34278231     
  6.100000000000001E-006    -1378673.87521533     
  6.120000000000001E-006    -1203472.15968981     
  6.140000000000001E-006    -1002083.84684758     
  6.160000000000000E-006    -786846.887374282     
  6.180000000000000E-006    -568903.536036960     
  6.200000000000000E-006    -357691.797769881     
  6.220000000000000E-006    -160797.043525949     
  6.240000000000000E-006     15931.6001801952     
  6.260000000000001E-006     168164.159153512     
  6.280000000000001E-006     292917.115255284     
  6.300000000000001E-006     388475.220870337     
  6.320000000000000E-006     454396.429252154     
  6.340000000000000E-006     491531.082976432     
  6.360000000000000E-006     501917.647835730     
  6.380000000000000E-006     488542.749913915     
  6.400000000000000E-006     455113.150174331     
  6.420000000000000E-006     405944.280514401     
  6.439999999999999E-006     345947.558548130     
  6.459999999999999E-006     280599.373910338     
  6.480000000000001E-006     215732.334296052     
  6.500000000000000E-006     157058.179004105     
  6.520000000000000E-006     109460.346318878     
  6.540000000000000E-006     76232.8256994571     
  6.560000000000000E-006     58543.8487912044     
  6.580000000000000E-006     55301.2846380528     
  6.599999999999999E-006     63349.2645467253     
  6.619999999999999E-006     77863.4448096449     
  6.639999999999999E-006     92910.3371401792     
  6.660000000000001E-006     102203.227964403     
  6.680000000000000E-006     100068.427149471     
  6.700000000000000E-006     82529.9992452400     
  6.720000000000000E-006     48290.7412407377     
  6.740000000000000E-006    -668.945979692394     
  6.760000000000000E-006    -59100.3289954102     
  6.779999999999999E-006    -119153.776650637     
  6.799999999999999E-006    -171515.821355829     
  6.819999999999999E-006    -206774.067518912     
  6.840000000000001E-006    -216922.039766245     
  6.860000000000000E-006    -196937.709283730     
  6.880000000000000E-006    -146156.895070714     
  6.900000000000000E-006    -68996.8409535174     
  6.920000000000000E-006     25321.1557624584     
  6.940000000000000E-006     124057.776309129     
  6.959999999999999E-006     212869.731855875     
  6.979999999999999E-006     277835.704996504     
  6.999999999999999E-006     307239.976558634     
  7.020000000000001E-006     293077.123587237     
  7.040000000000000E-006     232493.415454901     
  7.060000000000000E-006     129182.801768687     
  7.080000000000000E-006    -5839.77669316015     
  7.100000000000000E-006    -154928.048216015     
  7.120000000000000E-006    -296306.260237379     
  7.139999999999999E-006    -407838.613680815     
  7.159999999999999E-006    -470862.583319431     
  7.179999999999999E-006    -472979.444491533     
  7.200000000000001E-006    -409488.217453362     
  7.220000000000000E-006    -283884.012829098     
  7.240000000000000E-006    -107971.916701180     
  7.260000000000000E-006     98412.5186807195     
  7.280000000000000E-006     308819.580231628     
  7.300000000000000E-006     493436.365060502     
  7.319999999999999E-006     623863.816841455     
  7.339999999999999E-006     678105.222547429     
  7.359999999999999E-006     644241.369876738     
  7.380000000000000E-006     521974.429530875     
  7.400000000000000E-006     322340.159869332     
  7.420000000000000E-006     66454.2466873923     
  7.440000000000000E-006    -216239.537073666     
  7.460000000000000E-006    -490532.376789490     
  7.480000000000000E-006    -719432.425034750     
  7.499999999999999E-006    -869481.192490294     
  7.519999999999999E-006    -916186.995730482     
  7.540000000000001E-006    -847996.373503905     
  7.560000000000000E-006    -667946.044924833     
  7.580000000000000E-006    -393184.432505596     
  7.600000000000000E-006    -53126.0883975539     
  7.620000000000000E-006     313256.262052778     
  7.640000000000000E-006     661227.663399896     
  7.660000000000000E-006     945583.875265312     
  7.679999999999999E-006     1127058.00244651     
  7.699999999999999E-006     1178381.09265659     
  7.720000000000001E-006     1088277.62045644     
  7.740000000000000E-006     862606.958700762     
  7.760000000000000E-006     523173.500895267     
  7.780000000000000E-006     105277.112305497     
  7.800000000000000E-006    -345378.258633593     
  7.820000000000000E-006    -776660.359626584     
  7.839999999999999E-006    -1135531.73277105     
  7.859999999999999E-006    -1375116.78220702     
  7.879999999999999E-006    -1461867.99131407     
  7.900000000000001E-006    -1380640.53049717     
  7.920000000000000E-006    -1136377.49904242     
  7.940000000000000E-006    -752774.458798824     
  7.960000000000000E-006    -269177.240096694     
  7.980000000000000E-006     263342.382176078     
  8.000000000000000E-006     786579.670901962     
  8.019999999999999E-006     1240763.68149597     
  8.039999999999999E-006     1571219.78959836     
  8.059999999999999E-006     1735561.90830596     
  8.080000000000001E-006     1709883.14948115     
  8.100000000000000E-006     1492181.22927031     
  8.120000000000000E-006     1102371.21622273     
  8.140000000000000E-006     579604.998759267     
  8.160000000000000E-006    -22121.6011544591     
  8.180000000000000E-006    -639494.088210374     
  8.199999999999999E-006    -1206146.71616884     
  8.219999999999999E-006    -1659269.98757714     
  8.239999999999999E-006    -1946235.41713689     
  8.260000000000001E-006    -2030889.99159035     
  8.280000000000000E-006    -1898710.31011553     
  8.300000000000000E-006    -1559344.58869556     
  8.320000000000000E-006    -1045637.74006223     
  8.340000000000000E-006    -409550.312736891     
  8.360000000000000E-006     283947.644834655     
  8.379999999999999E-006     963876.017188022     
  8.399999999999999E-006     1560079.77785744     
  8.419999999999999E-006     2009389.68011301     
  8.440000000000001E-006     2261404.91821070     
  8.460000000000000E-006     2284345.72160968     
  8.480000000000000E-006     2070258.86644127     
  8.500000000000000E-006     1637408.34476010     
  8.520000000000000E-006     1028212.84399808     
  8.540000000000000E-006     303505.768168522     
  8.559999999999999E-006    -464745.450478150     
  8.579999999999999E-006    -1200644.33825159     
  8.600000000000001E-006    -1830885.76058329     
  8.620000000000000E-006    -2290804.67819122     
  8.640000000000000E-006    -2530469.43681687     
  8.660000000000000E-006    -2520816.83072377     
  8.680000000000000E-006    -2258492.08172578     
  8.700000000000000E-006    -1767071.84198898     
  8.720000000000000E-006    -1093681.02518049     
  8.739999999999999E-006    -302867.875446653     
  8.759999999999999E-006     529802.919462395     
  8.780000000000001E-006     1324046.35344518     
  8.800000000000000E-006     2001895.60143377     
  8.820000000000000E-006     2495490.44240323     
  8.840000000000000E-006     2754362.92482093     
  8.860000000000000E-006     2750873.17319924     
  8.880000000000000E-006     2483045.75306815     
  8.899999999999999E-006     1974311.85382106     
  8.919999999999999E-006     1270456.16525955     
  8.939999999999999E-006     435397.772608196     
  8.960000000000001E-006    -453334.769851592     
  8.980000000000000E-006    -1310823.53570245     
  9.000000000000000E-006    -2053776.92879781     
  9.020000000000000E-006    -2610413.93110574     
  9.040000000000000E-006    -2927863.35825357     
  9.060000000000000E-006    -2975870.25439631     
  9.079999999999999E-006    -2748251.87656031     
  9.099999999999999E-006    -2263251.33637754     
  9.119999999999999E-006    -1562458.97310796     
  9.140000000000001E-006    -708067.119087075     
  9.160000000000000E-006     221691.178575570     
  9.180000000000000E-006     1139845.41668578     
  9.200000000000000E-006     1960519.06248292     
  9.220000000000000E-006     2608381.93762896     
  9.240000000000000E-006     3024779.27854730     
  9.259999999999999E-006     3171009.20234908     
  9.279999999999999E-006     3031285.26476355     
  9.299999999999999E-006     2615531.57679826     
  9.320000000000001E-006     1959531.00383014     
  9.340000000000000E-006     1121450.97202686     
  9.360000000000000E-006     176130.059025639     
  9.380000000000000E-006    -791908.636945245     
  9.400000000000000E-006    -1696421.03483317     
  9.420000000000000E-006    -2457127.39314037     
  9.439999999999999E-006    -3005883.65404642     
  9.459999999999999E-006    -3292017.59322300     
  9.479999999999999E-006    -3287858.52242448     
  9.500000000000001E-006    -2992784.37595314     
  9.520000000000000E-006    -2432929.16528074     
  9.540000000000000E-006    -1657031.32540424     
  9.560000000000000E-006    -731538.082669743     
  9.580000000000000E-006     264141.895529808     
  9.600000000000000E-006     1243700.37388211     
  9.619999999999999E-006     2121525.74959094     
  9.639999999999999E-006     2820382.75857531     
  9.660000000000001E-006     3278343.93043132     
  9.680000000000000E-006     3454834.32489202     
  9.700000000000000E-006     3334518.01921645     
  9.720000000000000E-006     2927586.94915829     
  9.740000000000000E-006     2267710.67528666     
  9.760000000000000E-006     1409829.93313517     
  9.780000000000000E-006     426905.999821666     
  9.799999999999999E-006    -596547.542435594     
  9.819999999999999E-006    -1573163.73549738     
  9.840000000000001E-006    -2420595.88135858     
  9.860000000000000E-006    -3067511.35447409     
  9.880000000000000E-006    -3458856.63351615     
  9.900000000000000E-006    -3560593.25508703     
  9.920000000000000E-006    -3362675.54503842     
  9.940000000000000E-006    -2880156.77751762     
  9.960000000000000E-006    -2152978.76860361     
  9.979999999999999E-006    -1243073.40732083     
  9.999999999999999E-006    -227627.888814090     
  1.002000000000000E-005     809136.441612088     
  1.004000000000000E-005     1782521.75556617     
  1.006000000000000E-005     2612481.13304154     
  1.008000000000000E-005     3229530.85123582     
  1.010000000000000E-005     3581410.85487508     
  1.012000000000000E-005     3638094.60699659     
  1.014000000000000E-005     3394203.01352544     
  1.016000000000000E-005     2869670.33197182     
  1.018000000000000E-005     2108277.66032237     
  1.020000000000000E-005     1173106.48480064     
  1.022000000000000E-005     140342.424830193     
  1.024000000000000E-005    -906505.719548890     
  1.026000000000000E-005    -1882326.00811130     
  1.028000000000000E-005    -2707362.38465972     
  1.030000000000000E-005    -3314521.18130179     
  1.032000000000000E-005    -3654729.68244377     
  1.034000000000000E-005    -3700062.46476133     
  1.036000000000000E-005    -3446103.09034185     
  1.038000000000000E-005    -2913212.73303961     
  1.040000000000000E-005    -2144891.58983212     
  1.042000000000000E-005    -1203377.82154067     
  1.044000000000000E-005    -164231.992310837     
  1.046000000000000E-005     889461.344461669     
  1.048000000000000E-005     1873620.46258392     
  1.050000000000000E-005     2709965.22271355     
  1.052000000000000E-005     3331972.40295163     
  1.054000000000000E-005     3689772.38482928     