 -1.200000000000000E-006    0.000000000000000E+000
 -1.180000000000000E-006    0.000000000000000E+000
 -1.160000000000000E-006    0.000000000000000E+000
 -1.140000000000000E-006    0.000000000000000E+000
 -1.120000000000000E-006    0.000000000000000E+000
 -1.100000000000000E-006    0.000000000000000E+000
 -1.080000000000000E-006    0.000000000000000E+000
 -1.060000000000000E-006    0.000000000000000E+000
 -1.040000000000000E-006    0.000000000000000E+000
 -1.020000000000000E-006    0.000000000000000E+000
 -1.000000000000000E-006    0.000000000000000E+000
 -9.799999999999999E-007    0.000000000000000E+000
 -9.599999999999999E-007    0.000000000000000E+000
 -9.399999999999999E-007    0.000000000000000E+000
 -9.199999999999999E-007    0.000000000000000E+000
 -9.000000000000000E-007    4.003648522560044E-028
 -8.799999999999999E-007   -2.689247828699821E-026
 -8.599999999999999E-007    8.074372506103768E-025
 -8.400000000000000E-007   -1.480815846014213E-023
 -8.200000000000000E-007    1.882584016222137E-022
 -8.000000000000000E-007   -1.772452460082681E-021
 -7.799999999999999E-007    1.283807245450340E-020
 -7.599999999999999E-007   -7.311809542120232E-020
 -7.399999999999999E-007    3.307685275818987E-019
 -7.199999999999999E-007   -1.186300392298524E-018
 -7.000000000000000E-007    3.303604312254434E-018
 -6.799999999999999E-007   -6.656340306804862E-018
 -6.599999999999999E-007    7.007592773351307E-018
 -6.399999999999999E-007    1.086163748477847E-017
 -6.199999999999999E-007   -7.682208821685866E-017
 -6.000000000000000E-007    2.093842438906561E-016
 -5.800000000000000E-007   -3.055935787445548E-016
 -5.599999999999999E-007   -5.471763571785200E-017
 -5.399999999999999E-007    1.547560224704860E-015
 -5.199999999999999E-007   -3.953047137014219E-015
 -5.000000000000000E-007    3.922117733433293E-015
 -4.800000000000000E-007    4.865640570586942E-015
 -4.599999999999999E-007   -2.433952313615276E-014
 -4.399999999999999E-007    4.077168291438689E-014
 -4.199999999999999E-007   -1.889117091763354E-014
 -4.000000000000000E-007   -9.432333184264651E-014
 -3.800000000000000E-007    3.025321206965887E-013
 -3.599999999999999E-007   -3.306712429390279E-013
 -3.399999999999999E-007   -4.158045793574195E-013
 -3.199999999999999E-007    1.759477786924324E-012
 -2.999999999999999E-007   -1.504383120257950E-012
 -2.800000000000000E-007   -1.908370501982002E-012
 -2.599999999999999E-007    5.148746887910248E-012
 -2.399999999999998E-007   -5.283937311135260E-012
 -2.200000000000000E-007    3.465426404565221E-012
 -2.000000000000000E-007    1.426259217004172E-011
 -1.800000000000000E-007   -5.315200763464592E-011
 -1.600000000000000E-007    2.000695804962500E-011
 -1.399999999999999E-007    1.409844492623242E-010
 -1.199999999999999E-007   -1.444907932672566E-010
 -9.999999999999989E-008   -1.683912149897779E-010
 -7.999999999999987E-008    1.989113337868356E-010
 -5.999999999999985E-008    3.903383451123313E-011
 -3.999999999999983E-008    4.246776535328697E-010
 -2.000000000000002E-008    5.728530057445839E-012
  0.000000000000000E+000   -2.440386265518574E-009
  2.000000000000002E-008    5.746195768663075E-010
  4.000000000000004E-008    5.193323402346302E-009
  6.000000000000006E-008   -1.210652892282115E-009
  8.000000000000008E-008   -4.960966440231935E-009
  1.000000000000001E-007   -1.321017021565448E-009
  1.200000000000001E-007   -3.729796873165143E-009
  1.400000000000001E-007    8.988290322372837E-009
  1.600000000000002E-007    1.959871571476661E-008
  1.800000000000002E-007   -1.096643714334551E-008
  2.000000000000000E-007   -1.919264014709320E-008
  2.200000000000000E-007   -1.440563352548505E-008
  2.400000000000000E-007   -4.635989931922115E-008
  2.600000000000001E-007    4.442352673487299E-008
  2.800000000000001E-007    1.881563272893511E-007
  3.000000000000001E-007    5.873331759785348E-008
  3.200000000000001E-007   -2.195409680583054E-007
  3.400000000000001E-007   -3.998451755930614E-007
  3.600000000000002E-007   -2.678398434065120E-007
  3.800000000000002E-007    5.299890603910329E-007
  4.000000000000000E-007    1.206545810456323E-006
  4.200000000000000E-007    5.975744093289927E-007
  4.400000000000000E-007   -8.530327991678696E-007
  4.600000000000000E-007   -2.497224378658594E-006
  4.800000000000001E-007   -2.889633375441735E-006
  5.000000000000001E-007    6.581944738140542E-007
  5.200000000000001E-007    6.050729550009649E-006
  5.400000000000001E-007    7.416566190957953E-006
  5.600000000000001E-007    2.512571110988000E-006
  5.800000000000002E-007   -7.788902193752296E-006
  6.000000000000002E-007   -1.742395916378537E-005
  6.200000000000000E-007   -1.625663685990877E-005
  6.400000000000000E-007   -2.509084871813935E-006
  6.600000000000000E-007    2.207679222915731E-005
  6.800000000000001E-007    5.391147825704668E-005
  7.000000000000001E-007    6.478195133857101E-005
  7.200000000000003E-007    1.595189397830591E-005
  7.400000000000001E-007   -9.870610746174295E-005
  7.599999999999999E-007   -2.278754906222043E-004
  7.800000000000002E-007   -2.431345117988571E-004
  8.000000000000000E-007   -6.515676645901271E-006
  8.200000000000002E-007    4.580723698447818E-004
  8.400000000000000E-007    8.765677501381418E-004
  8.600000000000002E-007    7.886852854884282E-004
  8.800000000000000E-007   -1.788379699335832E-004
  9.000000000000003E-007   -1.807585365998699E-003
  9.200000000000001E-007   -3.046912340222872E-003
  9.399999999999999E-007   -2.450471731948140E-003
  9.600000000000001E-007    8.893969083705682E-004
  9.799999999999999E-007    6.158149438651602E-003
  1.000000000000000E-006    1.014249098199504E-002
  1.020000000000000E-006    8.261052813607769E-003
  1.040000000000000E-006   -2.500583271512475E-003
  1.060000000000000E-006   -1.971752287767777E-002
  1.080000000000000E-006   -3.322933919744553E-002
  1.100000000000000E-006   -2.830636499838340E-002
  1.120000000000000E-006    4.672882650840197E-003
  1.140000000000000E-006    5.834198476087959E-002
  1.160000000000000E-006    0.102439117564951     
  1.180000000000000E-006    9.355787376141703E-002
  1.200000000000000E-006    3.071549357554756E-003
  1.220000000000000E-006   -0.150324193516292     
  1.240000000000000E-006   -0.287311159692184     
  1.260000000000000E-006   -0.293928877951334     
  1.280000000000000E-006   -8.771366525333912E-002
  1.300000000000000E-006    0.305832700764443     
  1.320000000000000E-006    0.715828522916278     
  1.340000000000000E-006    0.868813477737096     
  1.360000000000000E-006    0.520133787339670     
  1.380000000000000E-006   -0.371200754672438     
  1.400000000000000E-006    -1.51666544811309     
  1.420000000000000E-006    -2.31733765207138     
  1.440000000000000E-006    -2.08213102434953     
  1.460000000000000E-006   -0.412100487339173     
  1.480000000000000E-006     2.40596724272562     
  1.500000000000000E-006     5.23737584664327     
  1.520000000000000E-006     6.37730810232873     
  1.540000000000000E-006     4.30618200939491     
  1.560000000000000E-006    -1.32029264212919     
  1.580000000000000E-006    -8.93729268821054     
  1.600000000000000E-006    -15.1246474889715     
  1.620000000000000E-006    -15.7410580356983     
  1.640000000000000E-006    -7.93381476210465     
  1.660000000000000E-006     7.75347092746373     
  1.680000000000000E-006     26.2705099905594     
  1.700000000000000E-006     38.9104729506602     
  1.720000000000000E-006     36.4438080188870     
  1.740000000000000E-006     13.7489345842399     
  1.760000000000000E-006    -26.0292488235048     
  1.780000000000000E-006    -70.3287223073808     
  1.800000000000000E-006    -100.872009733433     
  1.820000000000000E-006    -101.862489643002     
  1.840000000000000E-006    -69.3210194826771     
  1.860000000000000E-006    -16.1219545281930     
  1.880000000000000E-006     32.1171943739782     
  1.900000000000000E-006     51.0761422541576     
  1.920000000000000E-006     36.3482017533557     
  1.940000000000000E-006     16.7678757113127     
  1.960000000000000E-006     53.2846242615179     
  1.980000000000000E-006     220.901873327337     
  2.000000000000000E-006     581.078983586184     
  2.020000000000000E-006     1159.50466262491     
  2.040000000000000E-006     1944.06178937829     
  2.060000000000000E-006     2908.89853393612     
  2.080000000000000E-006     4057.20532996465     
  2.100000000000000E-006     5464.80584199378     
  2.120000000000000E-006     7305.09335652615     
  2.140000000000000E-006     9843.90079794158     
  2.160000000000000E-006     13405.7423382545     
  2.180000000000000E-006     18325.0013806790     
  2.200000000000000E-006     24901.1939523067     
  2.220000000000000E-006     33373.8220208616     
  2.240000000000000E-006     43921.6813123972     
  2.260000000000000E-006     56679.1734837886     
  2.280000000000000E-006     71751.2989948042     
  2.300000000000000E-006     89205.9643369925     
  2.320000000000000E-006     109030.114193892     
  2.340000000000000E-006     131052.378786440     
  2.360000000000000E-006     154852.059318537     
  2.380000000000000E-006     179679.466467167     
  2.400000000000000E-006     204397.470971180     
  2.420000000000000E-006     227439.698671021     
  2.440000000000000E-006     246774.558299665     
  2.460000000000000E-006     259879.045936468     
  2.480000000000000E-006     263762.983180129     
  2.500000000000000E-006     255093.779143724     
  2.520000000000000E-006     230444.911848236     
  2.540000000000000E-006     186622.193278646     
  2.560000000000000E-006     120973.087583940     
  2.580000000000000E-006     31617.0891898337     
  2.600000000000000E-006    -82375.0200891735     
  2.620000000000000E-006    -220741.260659168     
  2.640000000000001E-006    -381632.908980975     
  2.660000000000000E-006    -561105.195884463     
  2.680000000000000E-006    -752714.684797035     
  2.700000000000000E-006    -947487.676610074     
  2.720000000000000E-006    -1134377.66994125     
  2.740000000000000E-006    -1301061.77994468     
  2.760000000000000E-006    -1434769.38051745     
  2.780000000000000E-006    -1522928.61846456     
  2.800000000000000E-006    -1553687.51381885     
  2.820000000000001E-006    -1516576.43130004     
  2.840000000000000E-006    -1403511.44551995     
  2.860000000000000E-006    -1210054.72699234     
  2.880000000000000E-006    -936558.677757567     
  2.900000000000000E-006    -588797.889037716     
  2.920000000000000E-006    -177970.575172487     
  2.940000000000000E-006     279754.323910306     
  2.960000000000000E-006     763926.892573545     
  2.980000000000000E-006     1250768.89331475     
  3.000000000000000E-006     1714598.68728525     
  3.020000000000000E-006     2129755.06151969     
  3.040000000000000E-006     2472672.06460256     
  3.060000000000000E-006     2723497.47092164     
  3.080000000000000E-006     2866957.39982414     
  3.100000000000000E-006     2892711.47367098     
  3.120000000000000E-006     2795880.33423931     
  3.140000000000000E-006     2578066.48894993     
  3.160000000000000E-006     2248395.31814190     
  3.180000000000000E-006     1823501.62808514     
  3.200000000000000E-006     1325789.90249317     
  3.220000000000000E-006     780519.547762516     
  3.240000000000000E-006     213218.011115476     
  3.260000000000001E-006    -351306.785831583     
  3.280000000000000E-006    -888521.714814224     
  3.300000000000000E-006    -1373784.20535751     
  3.320000000000000E-006    -1783516.19459210     
  3.340000000000000E-006    -2098035.90701972     
  3.360000000000000E-006    -2304443.72602936     
  3.380000000000000E-006    -2397692.90654416     
  3.400000000000000E-006    -2379344.05953867     
  3.420000000000000E-006    -2255443.35161087     
  3.440000000000001E-006    -2035562.26151120     
  3.460000000000000E-006    -1733773.99622057     
  3.480000000000000E-006    -1370262.97128729     
  3.500000000000000E-006    -971407.766797494     
  3.520000000000000E-006    -567289.141577807     
  3.540000000000000E-006    -187602.177760850     
  3.560000000000000E-006     141908.942650532     
  3.580000000000000E-006     401230.040551683     
  3.600000000000000E-006     576596.971694216     
  3.620000000000000E-006     661179.733400389     
  3.640000000000000E-006     656604.719029370     
  3.660000000000000E-006     574449.605321668     
  3.680000000000000E-006     436030.431112266     
  3.700000000000001E-006     269610.353028099     
  3.720000000000000E-006     105910.494580704     
  3.740000000000000E-006    -26163.3151559709     
  3.760000000000000E-006    -102425.523031855     
  3.780000000000000E-006    -105502.172200524     
  3.800000000000000E-006    -27249.7729880814     
  3.820000000000001E-006     128561.595398001     
  3.840000000000001E-006     344774.605874074     
  3.860000000000000E-006     592051.407409230     
  3.880000000000000E-006     833029.358740961     
  3.900000000000000E-006     1028352.95144520     
  3.920000000000000E-006     1142681.71901817     
  3.940000000000000E-006     1149037.89835210     
  3.959999999999999E-006     1031432.08771179     
  3.980000000000001E-006     787133.016125943     
  4.000000000000001E-006     429215.089799830     
  4.020000000000000E-006    -12135.1035276274     
  4.040000000000000E-006    -491580.721717522     
  4.060000000000000E-006    -954028.282346344     
  4.080000000000000E-006    -1341996.77081362     
  4.100000000000000E-006    -1603598.34917253     
  4.120000000000000E-006    -1699842.30992519     
  4.139999999999999E-006    -1609545.22426123     
  4.160000000000001E-006    -1331218.28191415     
  4.180000000000001E-006    -883431.185456464     
  4.200000000000000E-006    -304861.023741747     
  4.220000000000000E-006     347274.493524118     
  4.240000000000000E-006     1002284.64625334     
  4.260000000000000E-006     1584159.30041146     
  4.280000000000000E-006     2021029.58126343     
  4.299999999999999E-006     2254997.65804584     
  4.320000000000001E-006     2250876.21372752     
  4.340000000000001E-006     2000567.15541689     
  4.360000000000001E-006     1521769.01217004     
  4.380000000000000E-006     854481.543296138     
  4.400000000000000E-006     58858.7630448032     
  4.420000000000000E-006    -787107.178529919     
  4.440000000000000E-006    -1593837.71782838     
  4.460000000000000E-006    -2270595.71826301     
  4.479999999999999E-006    -2737246.59309694     
  4.500000000000001E-006    -2935309.29829436     
  4.520000000000001E-006    -2836345.47893364     
  4.540000000000001E-006    -2444316.11223826     
  4.560000000000000E-006    -1791567.43525036     
  4.580000000000000E-006    -933859.389693151     
  4.600000000000000E-006     51766.6463620827     
  4.620000000000000E-006     1070090.38012685     
  4.640000000000000E-006     2016944.93857045     
  4.659999999999999E-006     2792740.87657574     
  4.680000000000001E-006     3314475.32008909     
  4.700000000000001E-006     3524240.00147798     
  4.720000000000001E-006     3395169.65974582     
  4.740000000000000E-006     2933631.96261969     
  4.760000000000000E-006     2176962.52978346     
  4.780000000000000E-006     1190042.41510251     
  4.800000000000000E-006     62271.5722676595     
  4.820000000000000E-006    -1099243.87748603     
  4.839999999999999E-006    -2182551.23090459     
  4.860000000000001E-006    -3084245.45630885     
  4.880000000000001E-006    -3717751.19335464     
  4.900000000000001E-006    -4018723.44292478     
  4.920000000000000E-006    -3951847.17409522     
  4.940000000000000E-006    -3516766.94208789     
  4.960000000000000E-006    -2748673.42655680     
  4.980000000000000E-006    -1714441.47530638     
  5.000000000000000E-006    -506685.161988716     
  5.019999999999999E-006     765438.856060113     
  5.040000000000001E-006     1988161.13050628     
  5.060000000000001E-006     3052878.94910627     
  5.080000000000000E-006     3862361.89172189     
  5.100000000000000E-006     4338465.26104807     
  5.120000000000000E-006     4433117.19993293     
  5.140000000000000E-006     4135707.42896521     
  5.160000000000000E-006     3471731.16113848     
  5.180000000000000E-006     2497131.14826674     
  5.199999999999999E-006     1293656.09575443     
  5.220000000000001E-006    -36559.3929565056     
  5.240000000000001E-006    -1379516.05958660     
  5.260000000000000E-006    -2618656.02663565     
  5.280000000000000E-006    -3644061.03141674     
  5.300000000000000E-006    -4363961.18590498     
  5.320000000000000E-006    -4716291.81595801     
  5.340000000000000E-006    -4673181.95080230     
  5.360000000000000E-006    -4237938.34243550     
  5.380000000000001E-006    -3442740.74541007     
  5.400000000000001E-006    -2350120.12068847     
  5.420000000000001E-006    -1051155.51422268     
  5.440000000000000E-006     344024.537569584     
  5.460000000000000E-006     1718288.85671839     
  5.480000000000000E-006     2957335.81441061     
  5.500000000000000E-006     3958802.27945170     
  5.520000000000000E-006     4641028.20352968     
  5.539999999999999E-006     4948258.41769164     
  5.560000000000001E-006     4852911.73854680     
  5.580000000000001E-006     4359418.97511269     
  5.600000000000001E-006     3507922.96800260     
  5.620000000000000E-006     2370686.14357192     
  5.640000000000000E-006     1041097.82833559     
  5.660000000000000E-006    -376256.361811051     
  5.680000000000000E-006    -1770578.00494302     
  5.700000000000000E-006    -3030189.97360071     
  5.719999999999999E-006    -4052120.86976453     
  5.740000000000001E-006    -4752688.51999836     
  5.760000000000001E-006    -5075473.97118071     
  5.780000000000001E-006    -4996414.54891378     
  5.800000000000000E-006    -4525109.03386308     
  5.820000000000000E-006    -3701021.20703565     
  5.840000000000000E-006    -2587625.19049831     
  5.860000000000000E-006    -1268828.11402251     
  5.880000000000000E-006     153674.257253121     
  5.899999999999999E-006     1567118.24173144     
  5.920000000000001E-006     2859057.86067547     
  5.940000000000001E-006     3928671.32721962     
  5.960000000000001E-006     4694626.54612819     
  5.980000000000000E-006     5100035.03599706     
  6.000000000000000E-006     5115346.63308763     
  6.020000000000000E-006     4739662.69554376     
  6.040000000000000E-006     4001479.52820987     
  6.060000000000000E-006     2958019.60342564     
  6.079999999999999E-006     1690650.74686905     
  6.100000000000001E-006     296818.485018988     
  6.120000000000001E-006    -1118224.75043978     
  6.140000000000001E-006    -2448339.43422608     
  6.160000000000000E-006    -3593434.38729250     
  6.180000000000000E-006    -4467314.12294335     
  6.200000000000000E-006    -5004718.24207823     
  6.220000000000000E-006    -5166166.20059573     
  6.240000000000000E-006    -4941214.81434745     
  6.260000000000001E-006    -4349343.53687260     
  6.280000000000001E-006    -3436928.73482081     
  6.300000000000001E-006    -2272287.31838445     
  6.320000000000000E-006    -941462.245983844     
  6.340000000000000E-006     456663.510014069     
  6.360000000000000E-006     1817992.17426604     
  6.380000000000000E-006     3042243.65082428     
  6.400000000000000E-006     4040512.98449322     
  6.420000000000000E-006     4740738.56308544     
  6.439999999999999E-006     5092770.64144416     
  6.459999999999999E-006     5072680.21657498     
  6.480000000000001E-006     4683910.85687650     
  6.500000000000000E-006     3956045.16935082     
  6.520000000000000E-006     2943150.43510439     
  6.540000000000000E-006     1720334.93637573     
  6.560000000000000E-006     377524.351645592     
  6.580000000000000E-006    -987778.299574762     
  6.599999999999999E-006    -2277536.27355556     
  6.619999999999999E-006    -3399895.79081246     
  6.639999999999999E-006    -4275514.96588918     
  6.660000000000001E-006    -4843027.08521290     
  6.680000000000000E-006    -5062732.24196887     
  6.700000000000000E-006    -4919394.00403165     
  6.720000000000000E-006    -4424898.96806370     
  6.740000000000000E-006    -3617899.05883216     
  6.760000000000000E-006    -2559062.65388288     
  6.779999999999999E-006    -1324863.59798811     
  6.799999999999999E-006    -1849.31803398835     
  6.819999999999999E-006     1318293.01922365     
  6.840000000000001E-006     2543079.33243243     
  6.860000000000000E-006     3584947.13709672     
  6.880000000000000E-006     4368926.92924100     
  6.900000000000000E-006     4840203.70692711     
  6.920000000000000E-006     4969301.30368919     
  6.940000000000000E-006     4752461.13332608     
  6.959999999999999E-006     4207983.55771712     
  6.979999999999999E-006     3373507.18054754     
  6.999999999999999E-006     2305562.18056714     
  7.020000000000001E-006     1078444.00569551     
  7.040000000000000E-006    -219713.550392397     
  7.060000000000000E-006    -1495014.02516132     
  7.080000000000000E-006    -2658034.85014982     
  7.100000000000000E-006    -3630930.01343685     
  7.120000000000000E-006    -4350465.46311812     
  7.139999999999999E-006    -4769634.16672142     
  7.159999999999999E-006    -4859650.13879964     
  7.179999999999999E-006    -4613672.72825219     
  7.200000000000001E-006    -4050033.28497908     
  7.220000000000000E-006    -3210852.66306385     
  7.240000000000000E-006    -2156996.27574764     
  7.260000000000000E-006    -962073.372629878     
  7.280000000000000E-006     293052.249577533     
  7.300000000000000E-006     1523721.24702370     
  7.319999999999999E-006     2645399.51606015     
  7.339999999999999E-006     3580885.17130073     
  7.359999999999999E-006     4267420.35805896     
  7.380000000000000E-006     4660982.27009979     
  7.400000000000000E-006     4738231.10021363     
  7.420000000000000E-006     4496073.22198301     
  7.440000000000000E-006     3951034.64089425     
  7.460000000000000E-006     3139950.99920736     
  7.480000000000000E-006     2119153.13462047     
  7.499999999999999E-006     960682.349615964     
  7.519999999999999E-006    -254495.955674415     
  7.540000000000001E-006    -1444941.78389412     
  7.560000000000000E-006    -2533587.57686682     
  7.580000000000000E-006    -3449020.58202612     
  7.600000000000000E-006    -4129382.46643516     
  7.620000000000000E-006    -4528674.53818355     
  7.640000000000000E-006    -4621495.56711319     
  7.660000000000000E-006    -4405067.65696676     
  7.679999999999999E-006    -3897674.80422967     
  7.699999999999999E-006    -3135135.44853156     
  7.720000000000001E-006    -2168080.09246887     
  7.740000000000000E-006    -1059630.42386021     
  7.760000000000000E-006     116484.425484432     
  7.780000000000000E-006     1279237.48866649     
  7.800000000000000E-006     2348714.89964526     
  7.820000000000000E-006     3254999.69734616     
  7.839999999999999E-006     3941510.94862434     
  7.859999999999999E-006     4365892.19833022     
  7.879999999999999E-006     4501598.93959431     
  7.900000000000001E-006     4339695.54391971     
  7.920000000000000E-006     3890969.87010064     
  7.940000000000000E-006     3186589.70077331     
  7.960000000000000E-006     2275895.90320078     
  7.980000000000000E-006     1221779.67258804     
  8.000000000000000E-006     94064.4626003377     
  8.019999999999999E-006    -1035026.56234251     
  8.039999999999999E-006    -2091813.43224884     
  8.059999999999999E-006    -3005393.85391359     
  8.080000000000001E-006    -3715915.73894060     
  8.100000000000000E-006    -4179354.48829339     
  8.120000000000000E-006    -4368156.82909545     
  8.140000000000000E-006    -4271809.81154477     
  8.160000000000000E-006    -3897850.83689393     
  8.180000000000000E-006    -3271869.60758443     
  8.199999999999999E-006    -2435408.29350168     
  8.219999999999999E-006    -1443643.69266174     
  8.239999999999999E-006    -363534.014567196     
  8.260000000000001E-006     732162.560965347     
  8.280000000000000E-006     1773334.73528608     
  8.300000000000000E-006     2695551.78363358     
  8.320000000000000E-006     3440064.04187154     
  8.340000000000000E-006     3957927.76731765     
  8.360000000000000E-006     4216035.10546011     
  8.379999999999999E-006     4199793.44805155     
  8.399999999999999E-006     3912478.08038477     
  8.419999999999999E-006     3374395.68187044     
  8.440000000000001E-006     2622431.52745609     
  8.460000000000000E-006     1706710.62396658     
  8.480000000000000E-006     685632.457290340     
  8.500000000000000E-006    -375775.798982768     
  8.520000000000000E-006    -1407606.86512457     
  8.540000000000000E-006    -2342010.54708252     
  8.559999999999999E-006    -3120140.67327530     
  8.579999999999999E-006    -3694246.93561307     
  8.600000000000001E-006    -4028774.54560580     
  8.620000000000000E-006    -4103609.88980549     
  8.640000000000000E-006    -3916438.78296171     
  8.660000000000000E-006    -3481227.02404491     
  8.680000000000000E-006    -2825801.05792999     
  8.700000000000000E-006    -1992163.44485990     
  8.720000000000000E-006    -1035670.81075340     
  8.739999999999999E-006    -19253.9817737805     
  8.759999999999999E-006     992524.598004728     
  8.780000000000001E-006     1936002.80393119     
  8.800000000000000E-006     2751424.44179733     
  8.820000000000000E-006     3387848.56804654     
  8.840000000000000E-006     3806298.51516816     
  8.860000000000000E-006     3980816.79387925     
  8.880000000000000E-006     3900721.80424556     
  8.899999999999999E-006     3573278.13048448     
  8.919999999999999E-006     3022485.85652294     
  8.939999999999999E-006     2284628.43761800     
  8.960000000000001E-006     1405781.55977362     
  8.980000000000000E-006     441407.457235058     
  9.000000000000000E-006    -546502.074840523     
  9.020000000000000E-006    -1494704.52868968     
  9.040000000000000E-006    -2342774.45388206     
  9.060000000000000E-006    -3036780.35306347     
  9.079999999999999E-006    -3534523.24514243     
  9.099999999999999E-006    -3808425.50833363     
  9.119999999999999E-006    -3843588.43854270     
  9.140000000000001E-006    -3636835.61727883     
  9.160000000000000E-006    -3200390.50972582     
  9.180000000000000E-006    -2564229.37625397     
  9.200000000000000E-006    -1771997.48956685     
  9.220000000000000E-006    -874553.113924809     
  9.240000000000000E-006     72984.7177507055     
  9.259999999999999E-006     1012122.04855956     
  9.279999999999999E-006     1884252.83384078     
  9.299999999999999E-006     2634814.02752011     
  9.320000000000001E-006     3215928.25266120     
  9.340000000000000E-006     3590480.04862578     
  9.360000000000000E-006     3737260.82226750     
  9.380000000000000E-006     3651464.54013509     
  9.400000000000000E-006     3340897.75077245     
  9.420000000000000E-006     2824066.96836052     
  9.439999999999999E-006     2131779.62823959     
  9.459999999999999E-006     1308083.60700927     
  9.479999999999999E-006     406908.249391938     
  9.500000000000001E-006    -513650.247092359     
  9.520000000000000E-006    -1395842.08089667     
  9.540000000000000E-006    -2185976.25568898     
  9.560000000000000E-006    -2837239.28984455     
  9.580000000000000E-006    -3310279.45045780     
  9.600000000000000E-006    -3574869.95632175     
  9.619999999999999E-006    -3614563.66612396     
  9.639999999999999E-006    -3429422.69483519     
  9.660000000000001E-006    -3034045.58321466     
  9.680000000000000E-006    -2454096.92734536     
  9.700000000000000E-006    -1724723.37684598     
  9.720000000000000E-006    -890651.312020904     
  9.740000000000000E-006    -4627.15644970661     
  9.760000000000000E-006     876884.667761009     
  9.780000000000000E-006     1698323.02785432     
  9.799999999999999E-006     2409383.01851876     
  9.819999999999999E-006     2968570.69054645     
  9.840000000000001E-006     3343745.49834292     
  9.860000000000000E-006     3511808.72105666     
  9.880000000000000E-006     3461127.31499955     
  9.900000000000000E-006     3194854.76204969     
  9.920000000000000E-006     2731728.81135379     
  9.940000000000000E-006     2103552.13857789     
  9.960000000000000E-006     1350850.82885043     
  9.979999999999999E-006     519458.598304814     
  9.999999999999999E-006    -341016.856165117     
  1.002000000000000E-005    -1178130.83447130     
  1.004000000000000E-005    -1938750.39639774     
  1.006000000000000E-005    -2574181.66435818     
  1.008000000000000E-005    -3046156.89429101     
  1.010000000000000E-005    -3328794.38804993     
  1.012000000000000E-005    -3407258.23431462     
  1.014000000000000E-005    -3277520.46136395     
  1.016000000000000E-005    -2947435.19519306     
  1.018000000000000E-005    -2437193.03621717     
  1.020000000000000E-005    -1778857.74628310     
  1.022000000000000E-005    -1014844.38291328     
  1.024000000000000E-005    -194222.497742798     
  1.026000000000000E-005     632663.364697297     
  1.028000000000000E-005     1417415.55993957     
  1.030000000000000E-005     2113346.01598355     
  1.032000000000000E-005     2676917.11384267     
  1.034000000000000E-005     3073057.08573385     
  1.036000000000000E-005     3278952.58390031     
  1.038000000000000E-005     3283675.52295746     
  1.040000000000000E-005     3087670.22911046     
  1.042000000000000E-005     2703976.04470164     
  1.044000000000000E-005     2157769.69241239     
  1.046000000000000E-005     1483085.93880105     
  1.048000000000000E-005     720811.822277946     
  1.050000000000000E-005    -81586.8644872243     
  1.052000000000000E-005    -873643.271707139     
  1.054000000000000E-005    -1607900.96170792     