 -1.200000000000000E-006    0.000000000000000E+000
 -1.180000000000000E-006    0.000000000000000E+000
 -1.160000000000000E-006    0.000000000000000E+000
 -1.140000000000000E-006    0.000000000000000E+000
 -1.120000000000000E-006    0.000000000000000E+000
 -1.100000000000000E-006    0.000000000000000E+000
 -1.080000000000000E-006    0.000000000000000E+000
 -1.060000000000000E-006    0.000000000000000E+000
 -1.040000000000000E-006    0.000000000000000E+000
 -1.020000000000000E-006   -3.153007538859417E-032
 -1.000000000000000E-006   -4.907482309311217E-018
 -9.799999999999999E-007    2.197087952299627E-016
 -9.599999999999999E-007   -4.460509741815650E-015
 -9.399999999999999E-007    5.508529040917386E-014
 -9.199999999999999E-007   -4.631950335012089E-013
 -9.000000000000000E-007    2.789662257982835E-012
 -8.799999999999999E-007   -1.221735932442742E-011
 -8.599999999999999E-007    3.808988266563466E-011
 -8.400000000000000E-007   -7.640236299025884E-011
 -8.200000000000000E-007    5.318306106194271E-011
 -8.000000000000000E-007    2.190450461077977E-010
 -7.799999999999999E-007   -8.599416057329813E-010
 -7.599999999999999E-007    1.399687048400740E-009
 -7.399999999999999E-007   -4.776276460626313E-010
 -7.199999999999999E-007   -3.474766306937711E-009
 -7.000000000000000E-007    1.072972146585936E-008
 -6.799999999999999E-007   -1.572457836115792E-008
 -6.599999999999999E-007   -3.441120603936251E-009
 -6.399999999999999E-007    7.137986132386563E-008
 -6.199999999999999E-007   -1.234374278060446E-007
 -6.000000000000000E-007   -3.391131655211415E-008
 -5.800000000000000E-007    3.800850951201910E-007
 -5.599999999999999E-007   -3.430362434488068E-007
 -5.399999999999999E-007   -3.100230422712186E-007
 -5.199999999999999E-007    5.793426212919225E-007
 -5.000000000000000E-007   -5.712718235766505E-007
 -4.800000000000000E-007    1.837098116178399E-006
 -4.599999999999999E-007    4.961330310962806E-007
 -4.399999999999999E-007   -1.067790975382963E-005
 -4.199999999999999E-007    5.518262923441531E-006
 -4.000000000000000E-007    2.687673762174079E-005
 -3.800000000000000E-007   -1.648198834458728E-005
 -3.599999999999999E-007   -4.672412276036883E-005
 -3.399999999999999E-007    2.837541057262834E-006
 -3.199999999999999E-007    6.585187621733049E-005
 -2.999999999999999E-007    1.060699955958046E-004
 -2.800000000000000E-007   -6.425263372443288E-005
 -2.599999999999999E-007   -3.657989742592230E-004
 -2.399999999999998E-007   -5.998400100465071E-005
 -2.200000000000000E-007    6.373793763503899E-004
 -2.000000000000000E-007    4.966576479073644E-004
 -1.800000000000000E-007   -3.921133618587190E-004
 -1.600000000000000E-007   -1.121252990791132E-003
 -1.399999999999999E-007   -9.443655927770913E-004
 -1.199999999999999E-007    7.596145378543733E-004
 -9.999999999999989E-008    2.393639630799434E-003
 -7.999999999999987E-008    1.979685690610493E-003
 -5.999999999999985E-008   -1.238525630638689E-004
 -3.999999999999983E-008   -4.170130443870892E-003
 -2.000000000000002E-008   -7.411720687953009E-003
  0.000000000000000E+000   -3.000340510496625E-003
  2.000000000000002E-008    7.456998376313029E-003
  4.000000000000004E-008    1.609931576659733E-002
  6.000000000000006E-008    1.740135875387886E-002
  8.000000000000008E-008    2.015490628599098E-003
  1.000000000000001E-007   -3.109700209002887E-002
  1.200000000000001E-007   -6.054537679769220E-002
  1.400000000000001E-007   -5.488906812256601E-002
  1.600000000000002E-007    1.770552812390689E-002
  1.800000000000002E-007    0.146834635559601     
  2.000000000000000E-007    0.227506298135055     
  2.200000000000000E-007    0.126379768877751     
  2.400000000000000E-007   -0.188511758447045     
  2.600000000000001E-007   -0.559442768348878     
  2.800000000000001E-007   -0.640992013533972     
  3.000000000000001E-007   -0.152429297766066     
  3.200000000000001E-007    0.770720173234404     
  3.400000000000001E-007     1.54877139898409     
  3.600000000000002E-007     1.47275025550339     
  3.800000000000002E-007    0.219761691392461     
  4.000000000000000E-007    -1.72136743387829     
  4.200000000000000E-007    -3.29450521392200     
  4.400000000000000E-007    -3.55337267980385     
  4.600000000000000E-007    -2.00169058505084     
  4.800000000000001E-007     1.35463441462161     
  5.000000000000001E-007     5.95263000704091     
  5.200000000000001E-007     10.3528263767668     
  5.400000000000001E-007     11.6395292264070     
  5.600000000000001E-007     6.00031296315286     
  5.800000000000002E-007    -8.47045601357408     
  6.000000000000002E-007    -28.1473481740706     
  6.200000000000000E-007    -42.0355542048074     
  6.400000000000000E-007    -35.2961900222090     
  6.600000000000000E-007    0.524580433111364     
  6.800000000000001E-007     56.8135517583658     
  7.000000000000001E-007     105.778599502361     
  7.200000000000003E-007     110.379120796313     
  7.400000000000001E-007     43.1111180530882     
  7.599999999999999E-007    -95.0963788446990     
  7.800000000000002E-007    -265.312520872938     
  8.000000000000000E-007    -395.407418971316     
  8.200000000000002E-007    -401.712584280988     
  8.400000000000000E-007    -224.119732845296     
  8.600000000000002E-007     138.433656301725     
  8.800000000000000E-007     608.044573090155     
  9.000000000000003E-007     1042.86315883763     
  9.200000000000001E-007     1304.09486924057     
  9.399999999999999E-007     1357.91269606455     
  9.600000000000001E-007     1351.25837148509     
  9.799999999999999E-007     1596.98286689520     
  1.000000000000000E-006     2454.96974127907     
  1.020000000000000E-006     4175.12567814759     
  1.040000000000000E-006     6810.29624696239     
  1.060000000000000E-006     10267.7457674340     
  1.080000000000000E-006     14478.1715626798     
  1.100000000000000E-006     19570.0190811280     
  1.120000000000000E-006     25910.9658259502     
  1.140000000000000E-006     33986.2995833754     
  1.160000000000000E-006     44234.0554052633     
  1.180000000000000E-006     56974.3809530582     
  1.200000000000000E-006     72452.8363176878     
  1.220000000000000E-006     90898.4099234593     
  1.240000000000000E-006     112488.531172191     
  1.260000000000000E-006     137209.514579884     
  1.280000000000000E-006     164696.779888581     
  1.300000000000000E-006     194159.713166539     
  1.320000000000000E-006     224429.733198939     
  1.340000000000000E-006     254021.977363491     
  1.360000000000000E-006     281034.337253210     
  1.380000000000000E-006     302920.036474848     
  1.400000000000000E-006     316408.997591285     
  1.420000000000000E-006     317759.841810345     
  1.440000000000000E-006     303200.694490200     
  1.460000000000000E-006     269240.029109377     
  1.480000000000000E-006     212690.561496490     
  1.500000000000000E-006     130574.854156173     
  1.520000000000000E-006     20242.9823702490     
  1.540000000000000E-006    -120018.835263538     
  1.560000000000000E-006    -289933.881389705     
  1.580000000000000E-006    -486329.709227471     
  1.600000000000000E-006    -703103.209984964     
  1.620000000000000E-006    -932034.871593043     
  1.640000000000000E-006    -1163582.67992158     
  1.660000000000000E-006    -1386872.17263593     
  1.680000000000000E-006    -1589048.47753914     
  1.700000000000000E-006    -1754870.62661696     
  1.720000000000000E-006    -1867359.53908187     
  1.740000000000000E-006    -1909715.92455146     
  1.760000000000000E-006    -1867956.14440148     
  1.780000000000000E-006    -1732989.90341434     
  1.800000000000000E-006    -1500993.79615516     
  1.820000000000000E-006    -1172442.64881641     
  1.840000000000000E-006    -751536.026157074     
  1.860000000000000E-006    -247163.073976535     
  1.880000000000000E-006     325239.897973807     
  1.900000000000000E-006     942459.825352084     
  1.920000000000000E-006     1573966.73217780     
  1.940000000000000E-006     2184305.21930599     
  1.960000000000000E-006     2736920.59486328     
  1.980000000000000E-006     3197921.51154742     
  2.000000000000000E-006     3538006.03629463     
  2.020000000000000E-006     3732572.61562330     
  2.040000000000000E-006     3762134.89024558     
  2.060000000000000E-006     3614536.01837005     
  2.080000000000000E-006     3288068.22398576     
  2.100000000000000E-006     2793837.82925395     
  2.120000000000000E-006     2156483.99496685     
  2.140000000000000E-006     1412886.56355087     
  2.160000000000000E-006     608655.025825172     
  2.180000000000000E-006    -206495.863020256     
  2.200000000000000E-006    -982349.946747137     
  2.220000000000000E-006    -1670401.51990855     
  2.240000000000000E-006    -2226913.71892429     
  2.260000000000000E-006    -2617898.22923760     
  2.280000000000000E-006    -2823840.63338520     
  2.300000000000000E-006    -2841830.74124280     
  2.320000000000000E-006    -2685339.24530836     
  2.340000000000000E-006    -2382770.84503089     
  2.360000000000000E-006    -1974850.73025465     
  2.380000000000000E-006    -1510788.12403645     
  2.400000000000000E-006    -1044069.42157058     
  2.420000000000000E-006    -627632.518289902     
  2.440000000000000E-006    -306796.394942680     
  2.460000000000000E-006    -111065.088705711     
  2.480000000000000E-006    -49518.7505397685     
  2.500000000000000E-006    -112267.911459753     
  2.520000000000000E-006    -274635.072127669     
  2.540000000000000E-006    -499774.376295346     
  2.560000000000000E-006    -740048.448771831     
  2.580000000000000E-006    -940374.281133773     
  2.600000000000000E-006    -1044993.30636062     
  2.620000000000000E-006    -1006937.58380439     
  2.640000000000001E-006    -798439.862984591     
  2.660000000000000E-006    -418390.417060365     
  2.680000000000000E-006     107724.349628001     
  2.700000000000000E-006     734778.403664259     
  2.720000000000000E-006     1405137.89369983     
  2.740000000000000E-006     2051384.55109630     
  2.760000000000000E-006     2598159.55412774     
  2.780000000000000E-006     2969151.22112596     
  2.800000000000000E-006     3099504.53727047     
  2.820000000000001E-006     2948698.71729208     
  2.840000000000000E-006     2508977.54063813     
  2.860000000000000E-006     1806805.33966805     
  2.880000000000000E-006     897646.475168256     
  2.900000000000000E-006    -142147.496587999     
  2.920000000000000E-006    -1221384.77613807     
  2.940000000000000E-006    -2237803.79267539     
  2.960000000000000E-006    -3085121.88763693     
  2.980000000000000E-006    -3666530.70091091     
  3.000000000000000E-006    -3909973.68147424     
  3.020000000000000E-006    -3778406.13113683     
  3.040000000000000E-006    -3272922.89092671     
  3.060000000000000E-006    -2430856.21402257     
  3.080000000000000E-006    -1321629.35665458     
  3.100000000000000E-006    -41628.8393373818     
  3.120000000000000E-006     1292340.81249566     
  3.140000000000000E-006     2552501.28345333     
  3.160000000000000E-006     3613585.20641914     
  3.180000000000000E-006     4367967.71266563     
  3.200000000000000E-006     4737140.15544623     
  3.220000000000000E-006     4677631.81393212     
  3.240000000000000E-006     4183973.05605512     
  3.260000000000001E-006     3290346.12381380     
  3.280000000000000E-006     2069765.52883919     
  3.300000000000000E-006     628595.936118598     
  3.320000000000000E-006    -904375.533118351     
  3.340000000000000E-006    -2391660.62395553     
  3.360000000000000E-006    -3700045.51995663     
  3.380000000000000E-006    -4711301.99224367     
  3.400000000000000E-006    -5330778.63548862     
  3.420000000000000E-006    -5495579.87467686     
  3.440000000000001E-006    -5182830.70876191     
  3.460000000000000E-006    -4414319.45873209     
  3.480000000000000E-006    -3254397.43558184     
  3.500000000000000E-006    -1801934.73378448     
  3.520000000000000E-006    -178928.273141271     
  3.540000000000000E-006     1480408.98381148     
  3.560000000000000E-006     3038146.47724026     
  3.580000000000000E-006     4361575.33599287     
  3.600000000000000E-006     5334923.78843346     
  3.620000000000000E-006     5872064.94660841     
  3.640000000000000E-006     5926270.07208057     
  3.660000000000000E-006     5493239.02129832     
  3.680000000000000E-006     4608423.69309856     
  3.700000000000001E-006     3342795.03361381     
  3.720000000000000E-006     1797414.08907021     
  3.740000000000000E-006     96032.4214003739     
  3.760000000000000E-006    -1623615.59107895     
  3.780000000000000E-006    -3221183.62271682     
  3.800000000000000E-006    -4567388.95875446     
  3.820000000000001E-006    -5555659.61488014     
  3.840000000000001E-006    -6109415.84936914     
  3.860000000000000E-006    -6185647.33579235     
  3.880000000000000E-006    -5777152.65372342     
  3.900000000000000E-006    -4915017.96939792     
  3.920000000000000E-006    -3667775.97628273     
  3.940000000000000E-006    -2134720.88196268     
  3.959999999999999E-006    -436657.517235870     
  3.980000000000001E-006     1294364.70893619     
  4.000000000000001E-006     2926092.84370670     
  4.020000000000000E-006     4335229.04351558     
  4.040000000000000E-006     5415194.97814707     
  4.060000000000000E-006     6084256.39476348     
  4.080000000000000E-006     6292425.97360289     
  4.100000000000000E-006     6025865.03347030     
  4.120000000000000E-006     5307470.06294445     
  4.139999999999999E-006     4193533.54066253     
  4.160000000000001E-006     2769290.40895594     
  4.180000000000001E-006     1142822.40369915     
  4.200000000000000E-006    -564085.327193250     
  4.220000000000000E-006    -2224771.76523115     
  4.240000000000000E-006    -3716180.84087698     
  4.260000000000000E-006    -4929207.64371277     
  4.280000000000000E-006    -5777426.50626255     
  4.299999999999999E-006    -6202007.99678958     
  4.320000000000001E-006    -6174678.03191554     
  4.340000000000001E-006    -5699399.90009767     
  4.360000000000001E-006    -4812923.91527208     
  4.380000000000000E-006    -3582401.08928750     
  4.400000000000000E-006    -2098978.30596437     
  4.420000000000000E-006    -471297.337117366     
  4.440000000000000E-006     1181313.76947155     
  4.460000000000000E-006     2739433.38288023     
  4.479999999999999E-006     4093710.64315007     
  4.500000000000001E-006     5150961.29485375     
  4.520000000000001E-006     5839130.60284201     
  4.540000000000001E-006     6111867.97318108     
  4.560000000000000E-006     5951854.13975451     
  4.580000000000000E-006     5372746.08671379     
  4.600000000000000E-006     4418444.85086673     
  4.620000000000000E-006     3160072.68292442     
  4.640000000000000E-006     1690078.26779885     
  4.659999999999999E-006     112814.005027887     
  4.680000000000001E-006    -1462991.41904780     
  4.700000000000001E-006    -2928430.26589857     
  4.720000000000001E-006    -4181520.12262324     
  4.740000000000000E-006    -5136506.33926611     
  4.760000000000000E-006    -5730174.66495531     
  4.780000000000000E-006    -5925494.45627857     
  4.800000000000000E-006    -5713508.72544301     
  4.820000000000000E-006    -5112959.91905036     
  4.839999999999999E-006    -4167837.94197641     
  4.860000000000001E-006    -2943684.30213559     
  4.880000000000001E-006    -1525223.30354684     
  4.900000000000001E-006    -13057.3359844146     
  4.920000000000000E-006     1486306.17922249     
  4.940000000000000E-006     2872256.65014363     
  4.960000000000000E-006     4055333.52270490     
  4.980000000000000E-006     4958989.79171358     
  5.000000000000000E-006     5523477.20066916     
  5.019999999999999E-006     5711321.32344024     
  5.040000000000001E-006     5511976.58433663     
  5.060000000000001E-006     4943327.43171482     
  5.080000000000000E-006     4049360.72892439     
  5.100000000000000E-006     2894744.76022319     
  5.120000000000000E-006     1557545.73939496     
  5.140000000000000E-006     124536.252414168     
  5.160000000000000E-006    -1309852.47856894     
  5.180000000000000E-006    -2647866.48099356     
  5.199999999999999E-006    -3798244.11564457     
  5.220000000000001E-006    -4685369.59326591     
  5.240000000000001E-006    -5254632.96993962     
  5.260000000000000E-006    -5474490.92205974     
  5.280000000000000E-006    -5335448.95969047     
  5.300000000000000E-006    -4848203.18259783     
  5.320000000000000E-006    -4044126.02167746     
  5.340000000000000E-006    -2977381.31937229     
  5.360000000000000E-006    -1723089.75693470     
  5.380000000000001E-006    -368234.590321100     
  5.400000000000001E-006     998358.338059652     
  5.420000000000001E-006     2290049.97921336     
  5.440000000000000E-006     3424265.15398102     
  5.460000000000000E-006     4327747.53823937     
  5.480000000000000E-006     4942602.52163563     
  5.500000000000000E-006     5230218.00091017     
  5.520000000000000E-006     5174622.71343128     
  5.539999999999999E-006     4784481.09189252     
  5.560000000000001E-006     4090121.60180149     
  5.580000000000001E-006     3137910.76068565     
  5.600000000000001E-006     1988547.12013806     
  5.620000000000000E-006     717787.747740194     
  5.640000000000000E-006    -588477.216997918     
  5.660000000000000E-006    -1844455.40481264     
  5.680000000000000E-006    -2971311.15275822     
  5.700000000000000E-006    -3898981.96658560     
  5.719999999999999E-006    -4569430.39163394     
  5.740000000000001E-006    -4941971.65448655     
  5.760000000000001E-006    -4995322.78831863     
  5.780000000000001E-006    -4727728.67260644     
  5.800000000000000E-006    -4159407.04914052     
  5.820000000000000E-006    -3332484.47928910     
  5.840000000000000E-006    -2303731.68908991     
  5.860000000000000E-006    -1137352.88975833     
  5.880000000000000E-006     95217.3122311214     
  5.899999999999999E-006     1314552.97923331     
  5.920000000000001E-006     2439869.87279377     
  5.940000000000001E-006     3399219.85567395     
  5.960000000000001E-006     4134347.90397959     
  5.980000000000000E-006     4601766.09259528     
  6.000000000000000E-006     4775697.47966237     
  6.020000000000000E-006     4649503.36344764     
  6.040000000000000E-006     4232935.80354892     
  6.060000000000000E-006     3551654.90729834     
  6.079999999999999E-006     2649960.72411890     
  6.100000000000001E-006     1588760.41195036     
  6.120000000000001E-006     437613.303212619     
  6.140000000000001E-006    -731565.725652707     
  6.160000000000000E-006    -1846140.00708628     
  6.180000000000000E-006    -2835733.36359788     
  6.200000000000000E-006    -3639344.97899457     
  6.220000000000000E-006    -4209722.21295568     
  6.240000000000000E-006    -4513039.93387197     
  6.260000000000001E-006    -4531293.38938382     
  6.280000000000001E-006    -4266560.46271714     
  6.300000000000001E-006    -3739382.68398064     
  6.320000000000000E-006    -2984005.30990322     
  6.340000000000000E-006    -2047614.78611917     
  6.360000000000000E-006    -990663.876036908     
  6.380000000000000E-006     118168.188080814     
  6.400000000000000E-006     1210125.42224523     
  6.420000000000000E-006     2219890.69534458     
  6.439999999999999E-006     3085430.26661953     
  6.459999999999999E-006     3752398.99534748     
  6.480000000000001E-006     4181183.49446626     
  6.500000000000000E-006     4348383.76489380     
  6.520000000000000E-006     4245431.49043097     
  6.540000000000000E-006     3880194.98098820     
  6.560000000000000E-006     3278159.75390771     
  6.580000000000000E-006     2479333.54812742     
  6.599999999999999E-006     1533959.39687912     
  6.619999999999999E-006     500546.723456290     
  6.639999999999999E-006    -555938.072632482     
  6.660000000000001E-006    -1569310.69962383     
  6.680000000000000E-006    -2477950.07535401     
  6.700000000000000E-006    -3227098.34617827     
  6.720000000000000E-006    -3771292.94962423     
  6.740000000000000E-006    -4079195.39236867     
  6.760000000000000E-006    -4135696.94341539     
  6.779999999999999E-006    -3940073.16722120     
  6.799999999999999E-006    -3505000.56652827     
  6.819999999999999E-006    -2857644.95310229     
  6.840000000000001E-006    -2039542.12819391     
  6.860000000000000E-006    -1103385.49451300     
  6.880000000000000E-006    -108478.127262334     
  6.900000000000000E-006     883390.873119011     
  6.920000000000000E-006     1812616.99391707     
  6.940000000000000E-006     2625883.77511877     
  6.959999999999999E-006     3276693.14906927     
  6.979999999999999E-006     3725161.34684637     
  6.999999999999999E-006     3941967.24552593     
  7.020000000000001E-006     3914199.60649675     
  7.040000000000000E-006     3647438.45462477     
  7.060000000000000E-006     3162825.16137035     
  7.080000000000000E-006     2492610.45102546     
  7.100000000000000E-006     1677477.59356820     
  7.120000000000000E-006     765482.577018433     
  7.139999999999999E-006    -188871.056753484     
  7.159999999999999E-006    -1126433.31606253     
  7.179999999999999E-006    -1987833.29876514     
  7.200000000000001E-006    -2720149.86567127     
  7.220000000000000E-006    -3281696.44185085     
  7.240000000000000E-006    -3642455.11478298     
  7.260000000000000E-006    -3782555.65521520     
  7.280000000000000E-006    -3692963.87298019     
  7.300000000000000E-006    -3379004.47623615     
  7.319999999999999E-006    -2862302.68028968     
  7.339999999999999E-006    -2177904.80739638     
  7.359999999999999E-006    -1369180.51490481     
  7.380000000000000E-006    -484352.063533398     
  7.400000000000000E-006     424728.215368529     
  7.420000000000000E-006     1303777.48696609     
  7.440000000000000E-006     2099160.42994168     
  7.460000000000000E-006     2762012.23250010     
  7.480000000000000E-006     3252320.17612673     
  7.499999999999999E-006     3542656.69929094     
  7.519999999999999E-006     3619225.17478339     
  7.540000000000001E-006     3479612.34238383     
  7.560000000000000E-006     3131677.71478235     
  7.580000000000000E-006     2595801.04698245     
  7.600000000000000E-006     1906502.59018374     
  7.620000000000000E-006     1109116.95511104     
  7.640000000000000E-006     253143.436751672     
  7.660000000000000E-006    -611711.833081400     
  7.679999999999999E-006    -1435524.57538190     
  7.699999999999999E-006    -2169140.59855685     
  7.720000000000001E-006    -2767688.21765944     
  7.740000000000000E-006    -3194347.79290495     
  7.760000000000000E-006    -3424237.42761816     
  7.780000000000000E-006    -3447141.57403054     
  7.800000000000000E-006    -3266311.27628153     
  7.820000000000000E-006    -2894837.24215588     
  7.839999999999999E-006    -2353915.69074247     
  7.859999999999999E-006    -1674468.54353237     
  7.879999999999999E-006    -898325.558618277     
  7.900000000000001E-006    -74582.0369843573     
  7.920000000000000E-006     746324.368336031     
  7.940000000000000E-006     1516066.88280580     
  7.960000000000000E-006     2190464.76679941     
  7.980000000000000E-006     2731378.44350061     
  8.000000000000000E-006     3107494.70795350     
  8.019999999999999E-006     3295941.75889477     
  8.039999999999999E-006     3285796.57656860     
  8.059999999999999E-006     3080077.09635681     
  8.080000000000001E-006     2693995.71919218     
  8.100000000000000E-006     2151580.38464469     
  8.120000000000000E-006     1484429.99598516     
  8.140000000000000E-006     732394.749643374     
  8.160000000000000E-006    -58313.4733395979     
  8.180000000000000E-006    -839660.799911024     
  8.199999999999999E-006    -1565076.00912392     
  8.219999999999999E-006    -2192071.66106657     
  8.239999999999999E-006    -2685337.28472158     
  8.260000000000001E-006    -3017786.67969237     
  8.280000000000000E-006    -3170167.14832410     
  8.300000000000000E-006    -3132744.47476497     
  8.320000000000000E-006    -2908498.82602926     
  8.340000000000000E-006    -2513738.78307149     
  8.360000000000000E-006    -1974594.13113644     
  8.379999999999999E-006    -1323399.68304504     
  8.399999999999999E-006    -598188.377184116     
  8.419999999999999E-006     158028.291397362     
  8.440000000000001E-006     900517.858533244     
  8.460000000000000E-006     1585588.44599380     
  8.480000000000000E-006     2172445.88410504     
  8.500000000000000E-006     2626510.93078494     
  8.520000000000000E-006     2922564.12641810     
  8.540000000000000E-006     3045145.55078891     
  8.559999999999999E-006     2987848.03027205     
  8.579999999999999E-006     2754171.99369345     
  8.600000000000001E-006     2358893.49869314     
  8.620000000000000E-006     1827015.82928362     
  8.640000000000000E-006     1191018.75492485     
  8.660000000000000E-006     489216.758404934     
  8.680000000000000E-006    -235927.525786092     
  8.700000000000000E-006    -941470.519690945     
  8.720000000000000E-006    -1587101.66254487     
  8.739999999999999E-006    -2135955.73831324     
  8.759999999999999E-006    -2555876.54853000     
  8.780000000000001E-006    -2822401.50365055     
  8.800000000000000E-006    -2920941.82680977     
  8.820000000000000E-006    -2847093.98010840     
  8.840000000000000E-006    -2606735.95028315     
  8.860000000000000E-006    -2215991.13342712     
  8.880000000000000E-006    -1699389.11681976     
  8.899999999999999E-006    -1087135.19148045     
  8.919999999999999E-006    -414206.862644813     
  8.939999999999999E-006     279684.572258748     
  8.960000000000001E-006     952616.493941986     
  8.980000000000000E-006     1564790.97047093     
  9.000000000000000E-006     2081294.27534289     
  9.020000000000000E-006     2473317.00560381     
  9.040000000000000E-006     2719448.12035212     
  9.060000000000000E-006     2806237.26702459     
  9.079999999999999E-006     2728153.19222808     
  9.099999999999999E-006     2489177.19065836     
  9.119999999999999E-006     2104900.65252995     
  9.140000000000001E-006     1601040.50711126     
  9.160000000000000E-006     1008587.03072998     
  9.180000000000000E-006     360804.904972004     
  9.200000000000000E-006    -305949.461556848     
  9.220000000000000E-006    -952163.026345798     
  9.240000000000000E-006    -1538690.30895571     
  9.259999999999999E-006    -2030626.17459846     
  9.279999999999999E-006    -2399561.57000541     
  9.299999999999999E-006    -2625685.15707575     
  9.320000000000001E-006    -2698708.64780935     
  9.340000000000000E-006    -2616090.41241403     
  9.360000000000000E-006    -2381603.92214265     
  9.380000000000000E-006    -2007401.95003094     
  9.400000000000000E-006    -1516637.69356465     
  9.420000000000000E-006    -941374.052152104     
  9.439999999999999E-006    -316918.356358583     
  9.459999999999999E-006     321436.088619513     
  9.479999999999999E-006     938332.580196166     
  9.500000000000001E-006     1498762.13221706     
  9.520000000000000E-006     1969831.09098365     
  9.540000000000000E-006     2322982.77596878     
  9.560000000000000E-006     2537094.34573062     
  9.580000000000000E-006     2601253.33977150     
  9.600000000000000E-006     2514599.78837122     
  9.619999999999999E-006     2283616.02912372     
  9.639999999999999E-006     1920797.95320744     
  9.660000000000001E-006     1446553.01927876     
  9.680000000000000E-006     890150.256573683     
  9.700000000000000E-006     286374.592402277     
  9.720000000000000E-006    -328900.370383583     
  9.740000000000000E-006    -920929.050431618     
  9.760000000000000E-006    -1456885.26049674     
  9.780000000000000E-006    -1906414.06754301     
  9.799999999999999E-006    -2242810.68445333     
  9.819999999999999E-006    -2445545.41688085     
  9.840000000000001E-006    -2503266.42352235     
  9.860000000000000E-006    -2415289.19099233     
  9.880000000000000E-006    -2189872.60903771     
  9.900000000000000E-006    -1840914.59171101     
  9.920000000000000E-006    -1387222.69827793     
  9.940000000000000E-006    -854101.227868919     
  9.960000000000000E-006    -273346.030326559     
  9.979999999999999E-006     319361.431236240     
  9.999999999999999E-006     888508.371499959     
  1.002000000000000E-005     1402280.57524553     
  1.004000000000000E-005     1833319.05682011     
  1.006000000000000E-005     2157935.82305353     
  1.008000000000000E-005     2356649.08439304     
  1.010000000000000E-005     2416511.59831456     
  1.012000000000000E-005     2334054.54399467     
  1.014000000000000E-005     2116271.03319951     
  1.016000000000000E-005     1778366.62370032     
  1.018000000000000E-005     1340962.00165143     
  1.020000000000000E-005     828691.215154584     
  1.022000000000000E-005     269885.928921577     
  1.024000000000000E-005    -303053.663966939     
  1.026000000000000E-005    -855104.013378734     
  1.028000000000000E-005    -1352997.22019918     
  1.030000000000000E-005    -1768709.96836629     
  1.032000000000000E-005    -2080043.92689931     
  1.034000000000000E-005    -2270315.63380520     
  1.036000000000000E-005    -2328785.55987905     
  1.038000000000000E-005    -2252102.41726858     
  1.040000000000000E-005    -2045318.94858464     
  1.042000000000000E-005    -1721347.34020181     
  1.044000000000000E-005    -1300134.57266835     
  1.046000000000000E-005    -807175.234546381     
  1.048000000000000E-005    -270774.908534476     
  1.050000000000000E-005     279130.997110480     
  1.052000000000000E-005     810726.751539246     
  1.054000000000000E-005     1292248.89670984     