 -1.200000000000000E-006    0.000000000000000E+000
 -1.180000000000000E-006    0.000000000000000E+000
 -1.160000000000000E-006    0.000000000000000E+000
 -1.140000000000000E-006    0.000000000000000E+000
 -1.120000000000000E-006    0.000000000000000E+000
 -1.100000000000000E-006    0.000000000000000E+000
 -1.080000000000000E-006    0.000000000000000E+000
 -1.060000000000000E-006    0.000000000000000E+000
 -1.040000000000000E-006    0.000000000000000E+000
 -1.020000000000000E-006    0.000000000000000E+000
 -1.000000000000000E-006    0.000000000000000E+000
 -9.799999999999999E-007    0.000000000000000E+000
 -9.599999999999999E-007    5.624034594361946E-037
 -9.399999999999999E-007    6.366172583459172E-023
 -9.199999999999999E-007   -3.624150888928260E-021
 -9.000000000000000E-007    9.199930352110253E-020
 -8.799999999999999E-007   -1.417401991981887E-018
 -8.599999999999999E-007    1.498111434828719E-017
 -8.400000000000000E-007   -1.154803918150978E-016
 -8.200000000000000E-007    6.697377568289163E-016
 -8.000000000000000E-007   -2.953772092796298E-015
 -7.799999999999999E-007    9.799239069602789E-015
 -7.599999999999999E-007   -2.322506355715667E-014
 -7.399999999999999E-007    3.204272720740300E-014
 -7.199999999999999E-007    1.229818350411699E-014
 -7.000000000000000E-007   -2.028269268194815E-013
 -6.799999999999999E-007    5.928807389903673E-013
 -6.599999999999999E-007   -9.251710891279157E-013
 -6.399999999999999E-007    1.403165080938523E-013
 -6.199999999999999E-007    3.759319406246730E-012
 -6.000000000000000E-007   -1.094396728745098E-011
 -5.800000000000000E-007    1.172123303187042E-011
 -5.599999999999999E-007    1.548241331075926E-011
 -5.399999999999999E-007   -7.154540222746395E-011
 -5.199999999999999E-007    8.633101954639586E-011
 -5.000000000000000E-007    3.369407469818954E-011
 -4.800000000000000E-007   -2.562713153821894E-010
 -4.599999999999999E-007    4.514957104374195E-010
 -4.399999999999999E-007   -4.189366351414217E-010
 -4.199999999999999E-007   -7.070441187956997E-010
 -4.000000000000000E-007    3.457265028950811E-009
 -3.800000000000000E-007   -3.096771079322495E-009
 -3.599999999999999E-007   -7.036323255803477E-009
 -3.399999999999999E-007    1.453189614071045E-008
 -3.199999999999999E-007    3.509106792374313E-009
 -2.999999999999999E-007   -2.079059094451032E-008
 -2.800000000000000E-007    1.653356086158766E-009
 -2.599999999999999E-007   -2.161736927019782E-008
 -2.399999999999998E-007    5.532747421797706E-008
 -2.200000000000000E-007    1.609877675493972E-007
 -2.000000000000000E-007   -2.888903520069810E-007
 -1.800000000000000E-007   -3.948557200879459E-007
 -1.600000000000000E-007    6.493209188803186E-007
 -1.399999999999999E-007    7.025837752438122E-007
 -1.199999999999999E-007   -5.136003365731735E-007
 -9.999999999999989E-008   -1.173043006355037E-006
 -7.999999999999987E-008   -1.362520668721413E-006
 -5.999999999999985E-008    1.748077512983335E-006
 -3.999999999999983E-008    5.485031186275870E-006
 -2.000000000000002E-008   -1.240948798358447E-006
  0.000000000000000E+000   -8.675969468952024E-006
  2.000000000000002E-008   -2.298713679771679E-006
  4.000000000000004E-008    3.296490008563087E-006
  6.000000000000006E-008    5.979466855435858E-006
  8.000000000000008E-008    1.255767786394046E-005
  1.000000000000001E-007    2.822395911079857E-006
  1.200000000000001E-007   -1.382224032247792E-005
  1.400000000000001E-007   -2.472477333125690E-005
  1.600000000000002E-007   -4.213334423842968E-005
  1.800000000000002E-007    8.597722632803032E-007
  2.000000000000000E-007    1.109662306379908E-004
  2.200000000000000E-007    1.341025294848834E-004
  2.400000000000000E-007    3.032671236877455E-005
  2.600000000000001E-007   -1.785892926150188E-004
  2.800000000000001E-007   -4.449461849558761E-004
  3.000000000000001E-007   -3.575029305310144E-004
  3.200000000000001E-007    3.288171602025557E-004
  3.400000000000001E-007    1.108774417481623E-003
  3.600000000000002E-007    1.244891802280913E-003
  3.800000000000002E-007    8.334948410184263E-005
  4.000000000000000E-007   -2.118544643728101E-003
  4.200000000000000E-007   -3.351280081900255E-003
  4.400000000000000E-007   -1.993511797233355E-003
  4.600000000000000E-007    1.542102329171690E-003
  4.800000000000001E-007    5.823856730380931E-003
  5.000000000000001E-007    8.013246367664636E-003
  5.200000000000001E-007    5.005674520369397E-003
  5.400000000000001E-007   -3.268658461871386E-003
  5.600000000000001E-007   -1.440189444198352E-002
  5.800000000000002E-007   -2.328125771699970E-002
  6.000000000000002E-007   -2.109761389407379E-002
  6.200000000000000E-007   -8.858498975169698E-004
  6.400000000000000E-007    3.767302207841926E-002
  6.600000000000000E-007    8.158485902551930E-002
  6.800000000000001E-007    9.388908006117748E-002
  7.000000000000001E-007    3.063354355073964E-002
  7.200000000000003E-007   -0.113969548787760     
  7.400000000000001E-007   -0.277387252455880     
  7.599999999999999E-007   -0.334214306822113     
  7.800000000000002E-007   -0.157012081310242     
  8.000000000000000E-007    0.274549485566682     
  8.200000000000002E-007    0.796815689565276     
  8.400000000000000E-007     1.07444043666388     
  8.600000000000002E-007    0.731984827954093     
  8.800000000000000E-007   -0.383544518893012     
  9.000000000000003E-007    -1.95740372694843     
  9.200000000000001E-007    -3.16910641746907     
  9.399999999999999E-007    -2.93172847247854     
  9.600000000000001E-007   -0.470392759750362     
  9.799999999999999E-007     3.89490978774712     
  1.000000000000000E-006     8.28828595889473     
  1.020000000000000E-006     9.68192682001843     
  1.040000000000000E-006     5.37854421374702     
  1.060000000000000E-006    -4.87735756609330     
  1.080000000000000E-006    -17.4746674703631     
  1.100000000000000E-006    -25.5294707932557     
  1.120000000000000E-006    -21.8611389484073     
  1.140000000000000E-006    -3.41425024281519     
  1.160000000000000E-006     25.2734340353777     
  1.180000000000000E-006     52.1390038344240     
  1.200000000000000E-006     61.7700251002564     
  1.220000000000000E-006     42.1121384851955     
  1.240000000000000E-006    -9.00113429043999     
  1.260000000000000E-006    -80.4870713661788     
  1.280000000000000E-006    -149.559982679064     
  1.300000000000000E-006    -188.177342019847     
  1.320000000000000E-006    -173.041567311251     
  1.340000000000000E-006    -95.8942945502997     
  1.360000000000000E-006     30.3786689682394     
  1.380000000000000E-006     173.927825029447     
  1.400000000000000E-006     297.079400485551     
  1.420000000000000E-006     378.112751477507     
  1.440000000000000E-006     432.524667099567     
  1.460000000000000E-006     523.448334035324     
  1.480000000000000E-006     755.571534229291     
  1.500000000000000E-006     1253.79773951523     
  1.520000000000000E-006     2135.15697232901     
  1.540000000000000E-006     3485.57587693737     
  1.560000000000000E-006     5351.85887066343     
  1.580000000000000E-006     7756.50677315853     
  1.600000000000000E-006     10736.8577670972     
  1.620000000000000E-006     14401.5515747425     
  1.640000000000000E-006     18987.5939655598     
  1.660000000000000E-006     24887.4777073937     
  1.680000000000000E-006     32612.6426992704     
  1.700000000000000E-006     42686.3425232883     
  1.720000000000000E-006     55502.8237364126     
  1.740000000000000E-006     71219.4711156424     
  1.760000000000000E-006     89741.0249948680     
  1.780000000000000E-006     110801.079893574     
  1.800000000000000E-006     134074.490300095     
  1.820000000000000E-006     159214.045466913     
  1.840000000000000E-006     185737.670019455     
  1.860000000000000E-006     212787.636873022     
  1.880000000000000E-006     238888.878484112     
  1.900000000000000E-006     261847.327163049     
  1.920000000000000E-006     278847.810260692     
  1.940000000000000E-006     286700.348405848     
  1.960000000000000E-006     282103.945987426     
  1.980000000000000E-006     261811.690966057     
  2.000000000000000E-006     222682.110417788     
  2.020000000000000E-006     161728.200173452     
  2.040000000000000E-006     76307.9311261253     
  2.060000000000000E-006    -35481.6485740221     
  2.080000000000000E-006    -174278.663894402     
  2.100000000000000E-006    -338935.028437348     
  2.120000000000000E-006    -526100.701489707     
  2.140000000000000E-006    -729967.128719212     
  2.160000000000000E-006    -942196.031274913     
  2.180000000000000E-006    -1152046.28623150     
  2.200000000000000E-006    -1346751.37791974     
  2.220000000000000E-006    -1512209.36918954     
  2.240000000000000E-006    -1633943.70907062     
  2.260000000000000E-006    -1698125.00697556     
  2.280000000000000E-006    -1692440.89789643     
  2.300000000000000E-006    -1606802.30399849     
  2.320000000000000E-006    -1434150.78116260     
  2.340000000000000E-006    -1171597.96356824     
  2.360000000000000E-006    -821800.279024136     
  2.380000000000000E-006    -394092.307632177     
  2.400000000000000E-006     95247.7724340442     
  2.420000000000000E-006     623962.219018251     
  2.440000000000000E-006     1165752.24428293     
  2.460000000000000E-006     1692370.12746863     
  2.480000000000000E-006     2175124.97767927     
  2.500000000000000E-006     2585921.95579625     
  2.520000000000000E-006     2898662.09409062     
  2.540000000000000E-006     3091591.44917688     
  2.560000000000000E-006     3150238.84151367     
  2.580000000000000E-006     3069730.53650495     
  2.600000000000000E-006     2855312.30211058     
  2.620000000000000E-006     2520811.79035287     
  2.640000000000001E-006     2086056.06906740     
  2.660000000000000E-006     1574853.78336276     
  2.680000000000000E-006     1014267.51917415     
  2.700000000000000E-006     434221.036387654     
  2.720000000000000E-006    -134264.916594651     
  2.740000000000000E-006    -662727.787958030     
  2.760000000000000E-006    -1129331.39624171     
  2.780000000000000E-006    -1521108.37195398     
  2.800000000000000E-006    -1833257.99636077     
  2.820000000000001E-006    -2066245.72653430     
  2.840000000000000E-006    -2222754.74608138     
  2.860000000000000E-006    -2306303.61986639     
  2.880000000000000E-006    -2321560.08203060     
  2.900000000000000E-006    -2274631.71294484     
  2.920000000000000E-006    -2171709.88179633     
  2.940000000000000E-006    -2016550.70108294     
  2.960000000000000E-006    -1809133.64156017     
  2.980000000000000E-006    -1547101.12684694     
  3.000000000000000E-006    -1229216.74471390     
  3.020000000000000E-006    -858715.781352669     
  3.040000000000000E-006    -444930.095465034     
  3.060000000000000E-006    -3159.23777978774     
  3.080000000000000E-006     446077.543643557     
  3.100000000000000E-006     877320.845018249     
  3.120000000000000E-006     1260248.38698225     
  3.140000000000000E-006     1561306.58936850     
  3.160000000000000E-006     1748253.19461609     
  3.180000000000000E-006     1796467.23742624     
  3.200000000000000E-006     1694066.58621170     
  3.220000000000000E-006     1443839.15046873     
  3.240000000000000E-006     1062695.72720248     
  3.260000000000001E-006     580715.593259363     
  3.280000000000000E-006     40552.5824649008     
  3.300000000000000E-006    -504039.572675913     
  3.320000000000000E-006    -992458.559462374     
  3.340000000000000E-006    -1365031.05252172     
  3.360000000000000E-006    -1572626.00516199     
  3.380000000000000E-006    -1584593.78344632     
  3.400000000000000E-006    -1392414.69748300     
  3.420000000000000E-006    -1009324.78230509     
  3.440000000000001E-006    -468409.272831233     
  3.460000000000000E-006     178894.111608047     
  3.480000000000000E-006     864891.513324962     
  3.500000000000000E-006     1510970.55809908     
  3.520000000000000E-006     2037056.69593882     
  3.540000000000000E-006     2373170.62255312     
  3.560000000000000E-006     2469504.18097293     
  3.580000000000000E-006     2302355.52327932     
  3.600000000000000E-006     1875972.52828263     
  3.620000000000000E-006     1221886.40004378     
  3.640000000000000E-006     396735.952307721     
  3.660000000000000E-006    -521426.698806799     
  3.680000000000000E-006    -1439433.30123628     
  3.700000000000001E-006    -2258828.11877263     
  3.720000000000000E-006    -2887879.32930165     
  3.740000000000000E-006    -3252746.74873184     
  3.760000000000000E-006    -3305449.17278146     
  3.780000000000000E-006    -3028245.02449903     
  3.800000000000000E-006    -2435780.00805469     
  3.820000000000001E-006    -1575430.08323740     
  3.840000000000001E-006    -524155.169526193     
  3.860000000000000E-006     618794.149631321     
  3.880000000000000E-006     1742026.16778613     
  3.900000000000000E-006     2733652.48319114     
  3.920000000000000E-006     3492886.86301799     
  3.940000000000000E-006     3939923.94565845     
  3.959999999999999E-006     4023377.06968534     
  3.980000000000001E-006     3725218.45650248     
  4.000000000000001E-006     3063609.30298257     
  4.020000000000000E-006     2092998.04329449     
  4.040000000000000E-006     899458.436214414     
  4.060000000000000E-006    -408435.651326131     
  4.080000000000000E-006    -1710264.97521466     
  4.100000000000000E-006    -2884769.05471904     
  4.120000000000000E-006    -3821128.57351422     
  4.139999999999999E-006    -4429317.51134602     
  4.160000000000001E-006    -4648361.95310040     
  4.180000000000001E-006    -4451989.82352235     
  4.200000000000000E-006    -3851527.72437007     
  4.220000000000000E-006    -2895704.78433026     
  4.240000000000000E-006    -1666061.74191415     
  4.260000000000000E-006    -268702.343699866     
  4.280000000000000E-006     1174731.45624055     
  4.299999999999999E-006     2536939.98889250     
  4.320000000000001E-006     3696751.29797866     
  4.340000000000001E-006     4550586.94460673     
  4.360000000000001E-006     5021410.95962315     
  4.380000000000000E-006     5065172.19084213     
  4.400000000000000E-006     4674966.60125523     
  4.420000000000000E-006     3882094.69715038     
  4.440000000000000E-006     2752455.55924227     
  4.460000000000000E-006     1379375.53470830     
  4.479999999999999E-006    -123596.647792428     
  4.500000000000001E-006    -1630475.57827680     
  4.520000000000001E-006    -3013828.44806714     
  4.540000000000001E-006    -4156786.86572870     
  4.560000000000000E-006    -4962904.73847681     
  4.580000000000000E-006    -5364048.72045089     
  4.600000000000000E-006    -5326489.91327670     
  4.620000000000000E-006    -4853710.57067607     
  4.640000000000000E-006    -3984529.15919269     
  4.659999999999999E-006    -2788014.56402566     
  4.680000000000001E-006    -1358921.38090638     
  4.700000000000001E-006     187362.697053318     
  4.720000000000001E-006     1724560.34728908     
  4.740000000000000E-006     3128133.17327774     
  4.760000000000000E-006     4285988.93196303     
  4.780000000000000E-006     5106628.73236877     
  4.800000000000000E-006     5525645.14828518     
  4.820000000000000E-006     5510397.94451571     
  4.839999999999999E-006     5062216.18422545     
  4.860000000000001E-006     4215911.39618745     
  4.880000000000001E-006     3037769.04021509     
  4.900000000000001E-006     1621428.14822589     
  4.920000000000000E-006     79204.3211319000     
  4.940000000000000E-006    -1469003.94945533     
  4.960000000000000E-006    -2904899.31987656     
  4.980000000000000E-006    -4119150.41819974     
  5.000000000000000E-006    -5018646.12580928     
  5.019999999999999E-006    -5533908.68657166     
  5.040000000000001E-006    -5625889.95495140     
  5.060000000000001E-006    -5289659.04030657     
  5.080000000000000E-006    -4553606.75458968     
  5.100000000000000E-006    -3475650.19184994     
  5.120000000000000E-006    -2137875.16032232     
  5.140000000000000E-006    -640708.461675441     
  5.160000000000000E-006     903342.103277428     
  5.180000000000000E-006     2377901.03253253     
  5.199999999999999E-006     3672289.60979906     
  5.220000000000001E-006     4690271.51937171     
  5.240000000000001E-006     5357720.10706636     
  5.260000000000000E-006     5628140.32787717     
  5.280000000000000E-006     5484367.73114622     
  5.300000000000000E-006     4938074.20228838     
  5.320000000000000E-006     4029487.34439474     
  5.340000000000000E-006     2826432.32647903     
  5.360000000000000E-006     1419802.96204111     
  5.380000000000001E-006    -85196.9995004036     
  5.400000000000001E-006    -1578479.74638614     
  5.420000000000001E-006    -2952282.57190599     
  5.440000000000000E-006    -4107937.90101046     
  5.460000000000000E-006    -4963302.07583502     
  5.480000000000000E-006    -5458490.46479099     
  5.500000000000000E-006    -5559329.12605290     
  5.520000000000000E-006    -5260099.10593297     
  5.539999999999999E-006    -4584723.46658137     
  5.560000000000001E-006    -3584304.60697430     
  5.580000000000001E-006    -2331944.97065194     
  5.600000000000001E-006    -917831.609321782     
  5.620000000000000E-006     555832.234193983     
  5.640000000000000E-006     1982748.54390034     
  5.660000000000000E-006     3262015.67099963     
  5.680000000000000E-006     4305206.45404475     
  5.700000000000000E-006     5040845.38261494     
  5.719999999999999E-006     5418921.93318335     
  5.740000000000001E-006     5414963.97176677     
  5.760000000000001E-006     5031198.42859640     
  5.780000000000001E-006     4295827.74338543     
  5.800000000000000E-006     3262469.69668825     
  5.820000000000000E-006     2007042.88710533     
  5.840000000000000E-006     619952.500540817     
  5.860000000000000E-006    -802238.004130075     
  5.880000000000000E-006    -2162026.37250425     
  5.899999999999999E-006    -3365605.47420057     
  5.920000000000001E-006    -4329863.81343750     
  5.940000000000001E-006    -4989765.12263679     
  5.960000000000001E-006    -5302380.88655053     
  5.980000000000000E-006    -5248424.15935767     
  6.000000000000000E-006    -4834182.56252404     
  6.020000000000000E-006    -4091532.11585745     
  6.040000000000000E-006    -3073816.06713353     
  6.060000000000000E-006    -1851534.71637496     
  6.079999999999999E-006    -509274.405725506     
  6.100000000000001E-006     859811.669035341     
  6.120000000000001E-006     2161942.74794951     
  6.140000000000001E-006     3309682.58261679     
  6.160000000000000E-006     4226765.74729629     
  6.180000000000000E-006     4852381.23624666     
  6.200000000000000E-006     5146262.75368381     
  6.220000000000000E-006     5091715.51161752     
  6.240000000000000E-006     4694741.62628491     
  6.260000000000001E-006     3983503.88700953     
  6.280000000000001E-006     3008300.30525653     
  6.300000000000001E-006     1837235.33109345     
  6.320000000000000E-006     549812.346427326     
  6.340000000000000E-006    -767389.918101654     
  6.360000000000000E-006    -2025335.60445945     
  6.380000000000000E-006    -3139440.56414260     
  6.400000000000000E-006    -4036841.72922281     
  6.420000000000000E-006    -4660835.79095353     
  6.439999999999999E-006    -4971984.92942109     
  6.459999999999999E-006    -4950536.70213598     
  6.480000000000001E-006    -4600212.67015354     
  6.500000000000000E-006    -3947256.69114818     
  6.520000000000000E-006    -3036643.56437170     
  6.540000000000000E-006    -1930239.71210594     
  6.560000000000000E-006    -703420.876774009     
  6.580000000000000E-006     561516.918016840     
  6.599999999999999E-006     1781509.42661894     
  6.619999999999999E-006     2877414.74484649     
  6.639999999999999E-006     3777891.20605568     
  6.660000000000001E-006     4424169.82082216     
  6.680000000000000E-006     4775612.28829403     
  6.700000000000000E-006     4811734.67828045     
  6.720000000000000E-006     4532007.43167821     
  6.740000000000000E-006     3957298.90536220     
  6.760000000000000E-006     3128632.79279389     
  6.779999999999999E-006     2102012.49093407     
  6.799999999999999E-006     944745.951105367     
  6.819999999999999E-006    -267467.546145261     
  6.840000000000001E-006    -1455192.99923863     
  6.860000000000000E-006    -2540582.67713576     
  6.880000000000000E-006    -3453218.62055121     
  6.900000000000000E-006    -4134907.69661432     
  6.920000000000000E-006    -4543059.84071612     
  6.940000000000000E-006    -4654530.07719203     
  6.959999999999999E-006    -4466398.73303193     
  6.979999999999999E-006    -3992933.69240112     
  6.999999999999999E-006    -3264979.04147418     
  7.020000000000001E-006    -2330469.80136703     
  7.040000000000000E-006    -1251309.01293237     
  7.060000000000000E-006    -98742.4903167498     
  7.080000000000000E-006     1051872.95275093     
  7.100000000000000E-006     2126877.57310442     
  7.120000000000000E-006     3058541.98327652     
  7.139999999999999E-006     3788945.61991662     
  7.159999999999999E-006     4273316.36308813     
  7.179999999999999E-006     4481494.47783973     
  7.200000000000001E-006     4400893.83331207     
  7.220000000000000E-006     4039431.66950412     
  7.240000000000000E-006     3423522.34979955     
  7.260000000000000E-006     2594415.94749428     
  7.280000000000000E-006     1605644.83847148     
  7.300000000000000E-006     519989.983345520     
  7.319999999999999E-006    -593230.539938988     
  7.339999999999999E-006    -1662082.64922002     
  7.359999999999999E-006    -2618289.80629034     
  7.380000000000000E-006    -3401790.38902336     
  7.400000000000000E-006    -3963961.54570986     
  7.420000000000000E-006    -4271486.43517806     
  7.440000000000000E-006    -4307762.27605625     
  7.460000000000000E-006    -4072345.60061540     
  7.480000000000000E-006    -3581062.34384351     
  7.499999999999999E-006    -2865693.50602144     
  7.519999999999999E-006    -1973094.55393531     
  7.540000000000001E-006    -962137.824489865     
  7.560000000000000E-006     102747.769639588     
  7.580000000000000E-006     1155674.11697242     
  7.600000000000000E-006     2130270.50755041     
  7.620000000000000E-006     2964153.15766169     
  7.640000000000000E-006     3605468.64045881     
  7.660000000000000E-006     4016170.28816336     
  7.679999999999999E-006     4172755.40336668     
  7.699999999999999E-006     4066746.08554758     
  7.720000000000001E-006     3706033.81525449     
  7.740000000000000E-006     3115294.15517842     
  7.760000000000000E-006     2332880.95099745     
  7.780000000000000E-006     1408081.02840708     
  7.800000000000000E-006     400464.242384199     
  7.820000000000000E-006    -624543.858405377     
  7.839999999999999E-006    -1602795.83767475     
  7.859999999999999E-006    -2474797.54155786     
  7.879999999999999E-006    -3187198.67598284     
  7.900000000000001E-006    -3696208.60645558     
  7.920000000000000E-006    -3971411.38196490     
  7.940000000000000E-006    -3997717.32096054     
  7.960000000000000E-006    -3775300.36507413     
  7.980000000000000E-006    -3319593.48591217     
  8.000000000000000E-006    -2661286.19670092     
  8.019999999999999E-006    -1843007.21733642     
  8.039999999999999E-006    -915225.464183498     
  8.059999999999999E-006     64400.2956668660     
  8.080000000000001E-006     1033283.40149431     
  8.100000000000000E-006     1930926.44146015     
  8.120000000000000E-006     2703866.81270145     
  8.140000000000000E-006     3306021.12060675     
  8.160000000000000E-006     3700198.53793001     
  8.180000000000000E-006     3862713.11801149     
  8.199999999999999E-006     3786111.56825416     
  8.219999999999999E-006     3477164.42891433     
  8.239999999999999E-006     2955064.89730845     
  8.260000000000001E-006     2253105.44344616     
  8.280000000000000E-006     1417509.52772994     
  8.300000000000000E-006     500818.550638086     
  8.320000000000000E-006    -442018.371315936     
  8.340000000000000E-006    -1353105.47668172     
  8.360000000000000E-006    -2174780.72122155     
  8.379999999999999E-006    -2856838.64917730     
  8.399999999999999E-006    -3359923.53153371     
  8.419999999999999E-006    -3654531.84435313     
  8.440000000000001E-006    -3722384.08375463     
  8.460000000000000E-006    -3560692.26039371     
  8.480000000000000E-006    -3182457.71416611     
  8.500000000000000E-006    -2612249.10383410     
  8.520000000000000E-006    -1884785.76352816     
  8.540000000000000E-006    -1046076.69922750     
  8.559999999999999E-006    -149593.793216775     
  8.579999999999999E-006     750441.769506251     
  8.600000000000001E-006     1600889.29763642     
  8.620000000000000E-006     2349390.97536707     
  8.640000000000000E-006     2948915.16518184     
  8.660000000000000E-006     3363964.63381383     
  8.680000000000000E-006     3571685.72220441     
  8.700000000000000E-006     3560247.02764150     
  8.720000000000000E-006     3330593.33184861     
  8.739999999999999E-006     2899023.81093128     
  8.759999999999999E-006     2294573.81750213     
  8.780000000000001E-006     1554429.30914268     
  8.800000000000000E-006     723337.922913668     
  8.820000000000000E-006    -146739.531496039     
  8.840000000000000E-006    -1001609.80612843     
  8.860000000000000E-006    -1790081.30350429     
  8.880000000000000E-006    -2465357.95714864     
  8.899999999999999E-006    -2986455.47747660     
  8.919999999999999E-006    -3322392.48307482     
  8.939999999999999E-006    -3455049.08130256     
  8.960000000000001E-006    -3378167.53658686     
  8.980000000000000E-006    -3096801.58617132     
  9.000000000000000E-006    -2629285.77542471     
  9.020000000000000E-006    -2006686.11223063     
  9.040000000000000E-006    -1268115.96701325     
  9.060000000000000E-006    -457500.337785720     
  9.079999999999999E-006     376682.786387135     
  9.099999999999999E-006     1183515.93661404     
  9.119999999999999E-006     1914436.91573672     
  9.140000000000001E-006     2526346.33405455     
  9.160000000000000E-006     2982450.89397123     
  9.180000000000000E-006     3254893.92338991     
  9.200000000000000E-006     3328884.35833765     
  9.220000000000000E-006     3203120.39050783     
  9.240000000000000E-006     2886705.52848817     
  9.259999999999999E-006     2398118.63896993     
  9.279999999999999E-006     1766625.31620341     
  9.299999999999999E-006     1031644.21835822     
  9.320000000000001E-006     238992.168834711     
  9.340000000000000E-006    -563132.990336128     
  9.360000000000000E-006    -1326681.13487931     
  9.380000000000000E-006    -2006104.85683697     
  9.400000000000000E-006    -2561416.66934431     
  9.420000000000000E-006    -2960302.56800571     
  9.439999999999999E-006    -3179292.40156693     
  9.459999999999999E-006    -3205660.42984846     
  9.479999999999999E-006    -3038988.93099459     
  9.500000000000001E-006    -2691000.47368172     
  9.520000000000000E-006    -2184262.82497961     
  9.540000000000000E-006    -1550066.82595349     
  9.560000000000000E-006    -826316.440971483     
  9.580000000000000E-006    -56235.7192228792     
  9.600000000000000E-006     713592.346122583     
  9.619999999999999E-006     1436446.43069208     
  9.639999999999999E-006     2068912.42641332     
  9.660000000000001E-006     2573909.30502881     
  9.680000000000000E-006     2922314.31126845     
  9.700000000000000E-006     3093861.33848908     
  9.720000000000000E-006     3078957.12355420     
  9.740000000000000E-006     2879742.76611223     
  9.760000000000000E-006     2509377.78003255     
  9.780000000000000E-006     1991239.52087370     
  9.799999999999999E-006     1357444.97853276     
  9.819999999999999E-006     646265.410906145     
  9.840000000000001E-006    -99813.8901594444     
  9.860000000000000E-006    -835949.304084140     
  9.880000000000000E-006    -1517698.35624182     
  9.900000000000000E-006    -2104145.13818956     
  9.920000000000000E-006    -2561132.89717851     
  9.940000000000000E-006    -2863126.71808596     
  9.960000000000000E-006    -2993453.84363829     
  9.979999999999999E-006    -2945284.52497343     
  9.999999999999999E-006    -2722535.12962403     
  1.002000000000000E-005    -2339175.17058562     
  1.004000000000000E-005    -1818747.14351220     
  1.006000000000000E-005    -1193538.41182286     
  1.008000000000000E-005    -501727.415445566     
  1.010000000000000E-005     215644.690382185     
  1.012000000000000E-005     916754.210336541     
  1.014000000000000E-005     1560678.33336884     
  1.016000000000000E-005     2109154.71145612     
  1.018000000000000E-005     2529520.93405869     
  1.020000000000000E-005     2797544.94492292     
  1.022000000000000E-005     2898190.94009350     
  1.024000000000000E-005     2826240.23335353     
  1.026000000000000E-005     2587174.67795114     
  1.028000000000000E-005     2196285.23846592     
  1.030000000000000E-005     1677232.60221477     
  1.032000000000000E-005     1061205.10910637     
  1.034000000000000E-005     385314.383129526     
  1.036000000000000E-005    -309825.599635430     
  1.038000000000000E-005    -982883.144489850     
  1.040000000000000E-005    -1594447.21450405     
  1.042000000000000E-005    -2108616.73947360     
  1.044000000000000E-005    -2494908.26668083     
  1.046000000000000E-005    -2731108.18432175     
  1.048000000000000E-005    -2804630.89550802     
  1.050000000000000E-005    -2712282.93415493     
  1.052000000000000E-005    -2460269.16904103     
  1.054000000000000E-005    -2064093.95668450     