 -1.200000000000000E-006    0.000000000000000E+000
 -1.180000000000000E-006    0.000000000000000E+000
 -1.160000000000000E-006    0.000000000000000E+000
 -1.140000000000000E-006    0.000000000000000E+000
 -1.120000000000000E-006    0.000000000000000E+000
 -1.100000000000000E-006    0.000000000000000E+000
 -1.080000000000000E-006    0.000000000000000E+000
 -1.060000000000000E-006    0.000000000000000E+000
 -1.040000000000000E-006    0.000000000000000E+000
 -1.020000000000000E-006    0.000000000000000E+000
 -1.000000000000000E-006    0.000000000000000E+000
 -9.799999999999999E-007    0.000000000000000E+000
 -9.599999999999999E-007    0.000000000000000E+000
 -9.399999999999999E-007    0.000000000000000E+000
 -9.199999999999999E-007    0.000000000000000E+000
 -9.000000000000000E-007    0.000000000000000E+000
 -8.799999999999999E-007    0.000000000000000E+000
 -8.599999999999999E-007    0.000000000000000E+000
 -8.400000000000000E-007    0.000000000000000E+000
 -8.200000000000000E-007    0.000000000000000E+000
 -8.000000000000000E-007    0.000000000000000E+000
 -7.799999999999999E-007    0.000000000000000E+000
 -7.599999999999999E-007    0.000000000000000E+000
 -7.399999999999999E-007    0.000000000000000E+000
 -7.199999999999999E-007    0.000000000000000E+000
 -7.000000000000000E-007    0.000000000000000E+000
 -6.799999999999999E-007    0.000000000000000E+000
 -6.599999999999999E-007    0.000000000000000E+000
 -6.399999999999999E-007    0.000000000000000E+000
 -6.199999999999999E-007    0.000000000000000E+000
 -6.000000000000000E-007    0.000000000000000E+000
 -5.800000000000000E-007    0.000000000000000E+000
 -5.599999999999999E-007    0.000000000000000E+000
 -5.399999999999999E-007    0.000000000000000E+000
 -5.199999999999999E-007    0.000000000000000E+000
 -5.000000000000000E-007    0.000000000000000E+000
 -4.800000000000000E-007    0.000000000000000E+000
 -4.599999999999999E-007    0.000000000000000E+000
 -4.399999999999999E-007    0.000000000000000E+000
 -4.199999999999999E-007    0.000000000000000E+000
 -4.000000000000000E-007    0.000000000000000E+000
 -3.800000000000000E-007    0.000000000000000E+000
 -3.599999999999999E-007    0.000000000000000E+000
 -3.399999999999999E-007    0.000000000000000E+000
 -3.199999999999999E-007    0.000000000000000E+000
 -2.999999999999999E-007    0.000000000000000E+000
 -2.800000000000000E-007    0.000000000000000E+000
 -2.599999999999999E-007    0.000000000000000E+000
 -2.399999999999998E-007    0.000000000000000E+000
 -2.200000000000000E-007    0.000000000000000E+000
 -2.000000000000000E-007    0.000000000000000E+000
 -1.800000000000000E-007    0.000000000000000E+000
 -1.600000000000000E-007    0.000000000000000E+000
 -1.399999999999999E-007    0.000000000000000E+000
 -1.199999999999999E-007    0.000000000000000E+000
 -9.999999999999989E-008    0.000000000000000E+000
 -7.999999999999987E-008    0.000000000000000E+000
 -5.999999999999985E-008    0.000000000000000E+000
 -3.999999999999983E-008    0.000000000000000E+000
 -2.000000000000002E-008    0.000000000000000E+000
  0.000000000000000E+000    0.000000000000000E+000
  2.000000000000002E-008    0.000000000000000E+000
  4.000000000000004E-008    0.000000000000000E+000
  6.000000000000006E-008    0.000000000000000E+000
  8.000000000000008E-008    0.000000000000000E+000
  1.000000000000001E-007    0.000000000000000E+000
  1.200000000000001E-007    0.000000000000000E+000
  1.400000000000001E-007    0.000000000000000E+000
  1.600000000000002E-007    0.000000000000000E+000
  1.800000000000002E-007    0.000000000000000E+000
  2.000000000000000E-007    0.000000000000000E+000
  2.200000000000000E-007    0.000000000000000E+000
  2.400000000000000E-007    0.000000000000000E+000
  2.600000000000001E-007    0.000000000000000E+000
  2.800000000000001E-007    0.000000000000000E+000
  3.000000000000001E-007    0.000000000000000E+000
  3.200000000000001E-007    0.000000000000000E+000
  3.400000000000001E-007    0.000000000000000E+000
  3.600000000000002E-007    0.000000000000000E+000
  3.800000000000002E-007    0.000000000000000E+000
  4.000000000000000E-007    0.000000000000000E+000
  4.200000000000000E-007    0.000000000000000E+000
  4.400000000000000E-007    0.000000000000000E+000
  4.600000000000000E-007    0.000000000000000E+000
  4.800000000000001E-007    0.000000000000000E+000
  5.000000000000001E-007    0.000000000000000E+000
  5.200000000000001E-007    0.000000000000000E+000
  5.400000000000001E-007    0.000000000000000E+000
  5.600000000000001E-007    0.000000000000000E+000
  5.800000000000002E-007    0.000000000000000E+000
  6.000000000000002E-007    0.000000000000000E+000
  6.200000000000000E-007    0.000000000000000E+000
  6.400000000000000E-007    0.000000000000000E+000
  6.600000000000000E-007    0.000000000000000E+000
  6.800000000000001E-007    0.000000000000000E+000
  7.000000000000001E-007    0.000000000000000E+000
  7.200000000000003E-007    0.000000000000000E+000
  7.400000000000001E-007    0.000000000000000E+000
  7.599999999999999E-007    0.000000000000000E+000
  7.800000000000002E-007    0.000000000000000E+000
  8.000000000000000E-007    0.000000000000000E+000
  8.200000000000002E-007    0.000000000000000E+000
  8.400000000000000E-007    0.000000000000000E+000
  8.600000000000002E-007    0.000000000000000E+000
  8.800000000000000E-007    0.000000000000000E+000
  9.000000000000003E-007    0.000000000000000E+000
  9.200000000000001E-007    0.000000000000000E+000
  9.399999999999999E-007    0.000000000000000E+000
  9.600000000000001E-007    0.000000000000000E+000
  9.799999999999999E-007    0.000000000000000E+000
  1.000000000000000E-006    0.000000000000000E+000
  1.020000000000000E-006    0.000000000000000E+000
  1.040000000000000E-006    0.000000000000000E+000
  1.060000000000000E-006    0.000000000000000E+000
  1.080000000000000E-006    0.000000000000000E+000
  1.100000000000000E-006    0.000000000000000E+000
  1.120000000000000E-006    0.000000000000000E+000
  1.140000000000000E-006    0.000000000000000E+000
  1.160000000000000E-006    0.000000000000000E+000
  1.180000000000000E-006    0.000000000000000E+000
  1.200000000000000E-006    0.000000000000000E+000
  1.220000000000000E-006    0.000000000000000E+000
  1.240000000000000E-006    0.000000000000000E+000
  1.260000000000000E-006    0.000000000000000E+000
  1.280000000000000E-006    0.000000000000000E+000
  1.300000000000000E-006    0.000000000000000E+000
  1.320000000000000E-006    0.000000000000000E+000
  1.340000000000000E-006    0.000000000000000E+000
  1.360000000000000E-006    0.000000000000000E+000
  1.380000000000000E-006    0.000000000000000E+000
  1.400000000000000E-006    0.000000000000000E+000
  1.420000000000000E-006    0.000000000000000E+000
  1.440000000000000E-006    0.000000000000000E+000
  1.460000000000000E-006    0.000000000000000E+000
  1.480000000000000E-006    0.000000000000000E+000
  1.500000000000000E-006    0.000000000000000E+000
  1.520000000000000E-006    0.000000000000000E+000
  1.540000000000000E-006    0.000000000000000E+000
  1.560000000000000E-006    0.000000000000000E+000
  1.580000000000000E-006    0.000000000000000E+000
  1.600000000000000E-006    0.000000000000000E+000
  1.620000000000000E-006    0.000000000000000E+000
  1.640000000000000E-006    0.000000000000000E+000
  1.660000000000000E-006    0.000000000000000E+000
  1.680000000000000E-006    0.000000000000000E+000
  1.700000000000000E-006    0.000000000000000E+000
  1.720000000000000E-006    0.000000000000000E+000
  1.740000000000000E-006    0.000000000000000E+000
  1.760000000000000E-006    0.000000000000000E+000
  1.780000000000000E-006    0.000000000000000E+000
  1.800000000000000E-006    0.000000000000000E+000
  1.820000000000000E-006    0.000000000000000E+000
  1.840000000000000E-006    0.000000000000000E+000
  1.860000000000000E-006    0.000000000000000E+000
  1.880000000000000E-006    0.000000000000000E+000
  1.900000000000000E-006    0.000000000000000E+000
  1.920000000000000E-006    0.000000000000000E+000
  1.940000000000000E-006    0.000000000000000E+000
  1.960000000000000E-006    0.000000000000000E+000
  1.980000000000000E-006    0.000000000000000E+000
  2.000000000000000E-006    0.000000000000000E+000
  2.020000000000000E-006    0.000000000000000E+000
  2.040000000000000E-006    0.000000000000000E+000
  2.060000000000000E-006    0.000000000000000E+000
  2.080000000000000E-006    0.000000000000000E+000
  2.100000000000000E-006    0.000000000000000E+000
  2.120000000000000E-006    0.000000000000000E+000
  2.140000000000000E-006    0.000000000000000E+000
  2.160000000000000E-006    0.000000000000000E+000
  2.180000000000000E-006    0.000000000000000E+000
  2.200000000000000E-006    0.000000000000000E+000
  2.220000000000000E-006    0.000000000000000E+000
  2.240000000000000E-006    0.000000000000000E+000
  2.260000000000000E-006    0.000000000000000E+000
  2.280000000000000E-006    0.000000000000000E+000
  2.300000000000000E-006    0.000000000000000E+000
  2.320000000000000E-006    0.000000000000000E+000
  2.340000000000000E-006    0.000000000000000E+000
  2.360000000000000E-006    0.000000000000000E+000
  2.380000000000000E-006    0.000000000000000E+000
  2.400000000000000E-006    0.000000000000000E+000
  2.420000000000000E-006    0.000000000000000E+000
  2.440000000000000E-006    0.000000000000000E+000
  2.460000000000000E-006    0.000000000000000E+000
  2.480000000000000E-006    0.000000000000000E+000
  2.500000000000000E-006    0.000000000000000E+000
  2.520000000000000E-006    0.000000000000000E+000
  2.540000000000000E-006    0.000000000000000E+000
  2.560000000000000E-006    0.000000000000000E+000
  2.580000000000000E-006    0.000000000000000E+000
  2.600000000000000E-006    0.000000000000000E+000
  2.620000000000000E-006    0.000000000000000E+000
  2.640000000000001E-006    0.000000000000000E+000
  2.660000000000000E-006    0.000000000000000E+000
  2.680000000000000E-006    0.000000000000000E+000
  2.700000000000000E-006    0.000000000000000E+000
  2.720000000000000E-006    0.000000000000000E+000
  2.740000000000000E-006    0.000000000000000E+000
  2.760000000000000E-006   -2.602385892527436E-039
  2.780000000000000E-006    1.731584439948786E-039
  2.800000000000000E-006    1.524429269801259E-039
  2.820000000000001E-006    4.219408010762439E-039
  2.840000000000000E-006    2.756482895050569E-038
  2.860000000000000E-006    1.021397080497055E-038
  2.880000000000000E-006    7.863573887778463E-039
  2.900000000000000E-006   -4.059260965406902E-039
  2.920000000000000E-006   -1.003614367936741E-037
  2.940000000000000E-006    2.948309529425059E-037
  2.960000000000000E-006    2.146969647243247E-037
  2.980000000000000E-006    3.516717798406425E-038
  3.000000000000000E-006    7.591829598291101E-037
  3.020000000000000E-006   -1.439442524216499E-036
  3.040000000000000E-006    7.540726530996074E-037
  3.060000000000000E-006    4.642235480737284E-036
  3.080000000000000E-006   -4.371020974586273E-036
  3.100000000000000E-006    1.673405230728185E-036
  3.120000000000000E-006    8.568412969816537E-036
  3.140000000000000E-006   -1.445245848881800E-035
  3.160000000000000E-006   -8.965060352914726E-037
  3.180000000000000E-006    6.741959914684771E-036
  3.200000000000000E-006   -2.731543076300646E-035
  3.220000000000000E-006    3.991815990100457E-035
  3.240000000000000E-006    3.969742695709149E-035
  3.260000000000001E-006   -8.684985672847038E-035
  3.280000000000000E-006    2.725577449620491E-035
  3.300000000000000E-006    2.349162335170997E-036
  3.320000000000000E-006   -1.532721967895403E-034
  3.340000000000000E-006    2.996407936844374E-034
  3.360000000000000E-006    1.459954324680482E-034
  3.380000000000000E-006   -4.976577436279639E-034
  3.400000000000000E-006    2.079090965499481E-034
  3.420000000000000E-006   -2.050257927657529E-034
  3.440000000000001E-006   -6.958739094079569E-034
  3.460000000000000E-006    1.956549467728881E-033
  3.480000000000000E-006    4.330000926049587E-034
  3.500000000000000E-006   -2.365996618017724E-033
  3.520000000000000E-006    1.363267453186369E-033
  3.540000000000000E-006   -2.593045316766424E-033
  3.560000000000000E-006   -3.606496744299491E-033
  3.580000000000000E-006    1.114865385888700E-032
  3.600000000000000E-006    2.401781131830999E-033
  3.620000000000000E-006   -7.930036373811769E-033
  3.640000000000000E-006    6.431297616077254E-033
  3.660000000000000E-006   -2.334681786672572E-032
  3.680000000000000E-006   -1.985606270486818E-032
  3.700000000000001E-006    5.763155272512324E-032
  3.720000000000000E-006    1.804997400641064E-032
  3.740000000000000E-006   -1.059532779401432E-032
  3.760000000000000E-006    3.057883557335103E-032
  3.780000000000000E-006   -1.557410188764006E-031
  3.800000000000000E-006   -1.180212599615978E-031
  3.820000000000001E-006    2.421572991097436E-031
  3.840000000000001E-006    1.134996867005072E-031
  3.860000000000000E-006    1.204240894884124E-031
  3.880000000000000E-006    1.828981734002792E-031
  3.900000000000000E-006   -8.510226189481315E-031
  3.920000000000000E-006   -6.644710555495970E-031
  3.940000000000000E-006    8.492957837924507E-031
  3.959999999999999E-006    5.915706776024822E-031
  3.980000000000001E-006    1.148333679980231E-030
  4.000000000000001E-006    7.762910328718869E-031
  4.020000000000000E-006   -4.240266189463697E-030
  4.040000000000000E-006   -3.025384285574110E-030
  4.060000000000000E-006    3.798049038610512E-030
  4.080000000000000E-006    4.840778531588681E-030
  4.100000000000000E-006    7.389852428000056E-030
  4.120000000000000E-006   -2.122446586917838E-030
  4.139999999999999E-006   -3.019796882944114E-029
  4.160000000000001E-006   -2.134407046329685E-029
  4.180000000000001E-006    2.790379644683610E-029
  4.200000000000000E-006    7.285670008275033E-029
  4.220000000000000E-006    9.301490624876041E-029
  4.240000000000000E-006   -3.124966894756147E-029
  4.260000000000000E-006   -2.977936742310680E-028
  4.280000000000000E-006   -3.632861664162445E-028
  4.299999999999999E-006   -5.277518880922179E-031
  4.320000000000001E-006    7.551795174553386E-028
  4.340000000000001E-006    1.454329079708927E-027
  4.360000000000001E-006    7.940483709568367E-028
  4.380000000000000E-006   -1.859859000546617E-027
  4.400000000000000E-006   -4.766219280604416E-027
  4.420000000000000E-006   -4.629789970533772E-027
  4.440000000000000E-006    1.887507366983455E-027
  4.460000000000000E-006    1.367036358045017E-026
  4.479999999999999E-006    2.002178053180942E-026
  4.500000000000001E-006    6.821630564424344E-027
  4.520000000000001E-006   -2.915750138709987E-026
  4.540000000000001E-006   -6.741547340411181E-026
  4.560000000000000E-006   -6.059526428990799E-026
  4.580000000000000E-006    3.205757545383915E-026
  4.600000000000000E-006    1.819038863937225E-025
  4.620000000000000E-006    2.627809276380985E-025
  4.640000000000000E-006    1.037677292794454E-025
  4.659999999999999E-006   -3.527988646475780E-025
  4.680000000000001E-006   -8.519002827000357E-025
  4.700000000000001E-006   -8.271270430350790E-025
  4.720000000000001E-006    2.196766240458688E-025
  4.740000000000000E-006    2.076222093777533E-024
  4.760000000000000E-006    3.348790201600975E-024
  4.780000000000000E-006    1.928398436008465E-024
  4.800000000000000E-006   -3.195291369425770E-024
  4.820000000000000E-006   -9.705505741356590E-024
  4.839999999999999E-006   -1.141436263401746E-023
  4.860000000000001E-006   -1.587210648804821E-024
  4.880000000000001E-006    1.978918988581618E-023
  4.900000000000001E-006    3.950334091625684E-023
  4.920000000000000E-006    3.353916288898305E-023
  4.940000000000000E-006   -1.621224803849957E-023
  4.960000000000000E-006   -9.598630985669821E-023
  4.980000000000000E-006   -1.452217559591235E-022
  5.000000000000000E-006   -7.997485647479872E-023
  5.019999999999999E-006    1.362418609826961E-022
  5.040000000000001E-006    4.082401554717681E-022
  5.060000000000001E-006    4.905832071889220E-022
  5.080000000000000E-006    1.156927896578548E-022
  5.100000000000000E-006   -7.367179566959191E-022
  5.120000000000000E-006   -1.591591678362660E-021
  5.140000000000000E-006   -1.534760685491253E-021
  5.160000000000000E-006    2.128710440221470E-022
  5.180000000000000E-006    3.347069563547832E-021
  5.199999999999999E-006    5.825870473446075E-021
  5.220000000000001E-006    4.452409788683880E-021
  5.240000000000001E-006   -2.824150067149591E-021
  5.260000000000000E-006   -1.376280622684745E-020
  5.280000000000000E-006   -2.034584080890713E-020
  5.300000000000000E-006   -1.192046192675290E-020
  5.320000000000000E-006    1.624058078507478E-020
  5.340000000000000E-006    5.296805686738565E-020
  5.360000000000000E-006    6.865960427461826E-020
  5.380000000000001E-006    2.907060041259078E-020
  5.400000000000001E-006   -7.446796595405812E-020
  5.420000000000001E-006   -1.945019977675002E-019
  5.440000000000000E-006   -2.264408534729509E-019
  5.460000000000000E-006   -6.283844423971733E-020
  5.480000000000000E-006    3.039160978813763E-019
  5.500000000000000E-006    6.900546062296336E-019
  5.520000000000000E-006    7.376772113548181E-019
  5.539999999999999E-006    1.137958223364058E-019
  5.560000000000001E-006   -1.150064954166106E-018
  5.580000000000001E-006   -2.385957526923108E-018
  5.600000000000001E-006   -2.397388669731724E-018
  5.620000000000000E-006   -1.526623836241522E-019
  5.640000000000000E-006    4.113503569598900E-018
  5.660000000000000E-006    8.087784634249387E-018
  5.680000000000000E-006    7.838017985402534E-018
  5.700000000000000E-006    1.321222111900092E-019
  5.719999999999999E-006   -1.403596003352245E-017
  5.740000000000001E-006   -2.697218661188205E-017
  5.760000000000001E-006   -2.592306540948545E-017
  5.780000000000001E-006   -5.636346659416969E-019
  5.800000000000000E-006    4.582852859087798E-017
  5.820000000000000E-006    8.860520961757714E-017
  5.840000000000000E-006    8.687534959740269E-017
  5.860000000000000E-006    6.888444163898858E-018
  5.880000000000000E-006   -1.428577953598281E-016
  5.899999999999999E-006   -2.864015978771847E-016
  5.920000000000001E-006   -2.942279035418579E-016
  5.940000000000001E-006   -5.374754568340665E-017
  5.960000000000001E-006    4.214910649205929E-016
  5.980000000000000E-006    9.076102252760241E-016
  6.000000000000000E-006    1.000662230013565E-015
  6.020000000000000E-006    3.203729805271781E-016
  6.040000000000000E-006   -1.154733860589348E-015
  6.060000000000000E-006   -2.801663483209130E-015
  6.079999999999999E-006   -3.387102584065876E-015
  6.100000000000001E-006   -1.625227118660411E-015
  6.120000000000001E-006    2.814679814273609E-015
  6.140000000000001E-006    8.337716423395996E-015
  6.160000000000000E-006    1.129183313265887E-014
  6.180000000000000E-006    7.378525179842666E-015
  6.200000000000000E-006   -5.408292401672282E-015
  6.220000000000000E-006   -2.353039105068850E-014
  6.240000000000000E-006   -3.664712119165655E-014
  6.260000000000001E-006   -3.073283739974013E-014
  6.280000000000001E-006    3.732909792230093E-015
  6.300000000000001E-006    6.116982717586961E-014
  6.320000000000000E-006    1.142281823897932E-013
  6.340000000000000E-006    1.188450786172992E-013
  6.360000000000000E-006    3.551664318846254E-014
  6.380000000000000E-006   -1.376016323527853E-013
  6.400000000000000E-006   -3.359269648184365E-013
  6.420000000000000E-006   -4.283380840130795E-013
  6.439999999999999E-006   -2.662371867881269E-013
  6.459999999999999E-006    2.189657094076139E-013
  6.480000000000001E-006    9.063389503601260E-013
  6.500000000000000E-006    1.434975095412139E-012
  6.520000000000000E-006    1.292165238883541E-012
  6.540000000000000E-006    7.734480100064569E-014
  6.560000000000000E-006   -2.120554105943288E-012
  6.580000000000000E-006   -4.422143118958273E-012
  6.599999999999999E-006   -5.207608132530809E-012
  6.619999999999999E-006   -2.743058480865564E-012
  6.639999999999999E-006    3.639013710715072E-012
  6.660000000000001E-006    1.224404256218724E-011
  6.680000000000000E-006    1.845736544918518E-011
  6.700000000000000E-006    1.588703773174374E-011
  6.720000000000000E-006   -3.303637682726899E-013
  6.740000000000000E-006   -2.881622001455699E-011
  6.760000000000000E-006   -5.818170154200009E-011
  6.779999999999999E-006   -6.766423213164266E-011
  6.799999999999999E-006   -3.506728549810404E-011
  6.819999999999999E-006    4.819581702869247E-011
  6.840000000000001E-006    1.604701423477587E-010
  6.860000000000000E-006    2.425028924344816E-010
  6.880000000000000E-006    2.117437860270813E-010
  6.900000000000000E-006    4.350974851689609E-012
  6.920000000000000E-006   -3.645467464433238E-010
  6.940000000000000E-006   -7.520868882407876E-010
  6.959999999999999E-006   -8.941731437806389E-010
  6.979999999999999E-006   -5.038733181370076E-010
  6.999999999999999E-006    5.404583623817160E-010
  7.020000000000001E-006    1.985388468121075E-009
  7.040000000000000E-006    3.104556937800579E-009
  7.060000000000000E-006    2.864411682460129E-009
  7.080000000000000E-006    4.285490246700764E-010
  7.100000000000000E-006   -4.109633013994099E-009
  7.120000000000000E-006   -9.116356984318609E-009
  7.139999999999999E-006   -1.144435814121799E-008
  7.159999999999999E-006   -7.533305913737834E-009
  7.179999999999999E-006    4.419517877132701E-009
  7.200000000000001E-006    2.196535663523913E-008
  7.220000000000000E-006    3.707820759740952E-008
  7.240000000000000E-006    3.771946182846925E-008
  7.260000000000000E-006    1.322404353410875E-008
  7.280000000000000E-006   -3.752275133146327E-008
  7.300000000000000E-006   -9.873877557468877E-008
  7.319999999999999E-006   -1.367307630482889E-007
  7.339999999999999E-006   -1.101568323172011E-007
  7.359999999999999E-006    7.717725988424953E-009
  7.380000000000000E-006    2.015342894301612E-007
  7.400000000000000E-006    3.957658395272452E-007
  7.420000000000000E-006    4.640544456104906E-007
  7.440000000000000E-006    2.777196399146435E-007
  7.460000000000000E-006   -2.126611760835098E-007
  7.480000000000000E-006   -8.938845051144636E-007
  7.499999999999999E-006   -1.457174312175252E-006
  7.519999999999999E-006   -1.468484569362993E-006
  7.540000000000001E-006   -5.623835919145612E-007
  7.560000000000000E-006    1.285332507930166E-006
  7.580000000000000E-006    3.527840327956887E-006
  7.600000000000000E-006    5.029189381369116E-006
  7.620000000000000E-006    4.397879923979473E-006
  7.640000000000000E-006    6.803025561583109E-007
  7.660000000000000E-006   -5.792273731839266E-006
  7.679999999999999E-006   -1.282378959740851E-005
  7.699999999999999E-006   -1.654627923599295E-005
  7.720000000000001E-006   -1.272278443736483E-005
  7.740000000000000E-006    9.664653291114017E-007
  7.760000000000000E-006    2.243263808618088E-005
  7.780000000000000E-006    4.381847448719560E-005
  7.800000000000000E-006    5.269876375604847E-005
  7.820000000000000E-006    3.658961234256633E-005
  7.839999999999999E-006   -9.964518118265334E-006
  7.859999999999999E-006   -7.831612583677005E-005
  7.879999999999999E-006   -1.426363046334421E-004
  7.900000000000001E-006   -1.647201779987517E-004
  7.920000000000000E-006   -1.082648466445452E-004
  7.940000000000000E-006    4.015716294307557E-005
  7.960000000000000E-006    2.512998834436726E-004
  7.980000000000000E-006    4.459246508035765E-004
  8.000000000000000E-006    5.103801432043185E-004
  8.019999999999999E-006    3.386370239523801E-004
  8.039999999999999E-006   -1.077949406221908E-004
  8.059999999999999E-006   -7.442324101471552E-004
  8.080000000000001E-006   -1.342397157772082E-003
  8.100000000000000E-006   -1.573276836627300E-003
  8.120000000000000E-006   -1.122880502084639E-003
  8.140000000000000E-006    1.414689613147444E-004
  8.160000000000000E-006    2.012582091682563E-003
  8.180000000000000E-006    3.874689193312218E-003
  8.199999999999999E-006    4.801548316732298E-003
  8.219999999999999E-006    3.853597931049277E-003
  8.239999999999999E-006    5.259311005219938E-004
  8.260000000000001E-006   -4.795134035274705E-003
  8.280000000000000E-006   -1.057851321919252E-002
  8.300000000000000E-006   -1.431176026839249E-002
  8.320000000000000E-006   -1.319951981073152E-002
  8.340000000000000E-006   -5.323670421967672E-003
  8.360000000000000E-006    9.051370555179170E-003
  8.379999999999999E-006    2.655298258552379E-002
  8.399999999999999E-006    4.074415940037671E-002
  8.419999999999999E-006    4.356026277034868E-002
  8.440000000000001E-006    2.813690607717738E-002
  8.460000000000000E-006   -7.583630302000044E-003
  8.480000000000000E-006   -5.769015566692330E-002
  8.500000000000000E-006   -0.107157414108529     
  8.520000000000000E-006   -0.134117769482098     
  8.540000000000000E-006   -0.116104476350612     
  8.559999999999999E-006   -3.937509354758068E-002
  8.579999999999999E-006    9.126899384371029E-002
  8.600000000000001E-006    0.246080615839766     
  8.620000000000000E-006    0.371555798027174     
  8.640000000000000E-006    0.402008750078129     
  8.660000000000000E-006    0.281207197274273     
  8.680000000000000E-006   -1.053325145441941E-002
  8.700000000000000E-006   -0.432554323743940     
  8.720000000000000E-006   -0.874355066103079     
  8.739999999999999E-006    -1.17003876833486     
  8.759999999999999E-006    -1.14055800309919     
  8.780000000000001E-006   -0.658021348893137     
  8.800000000000000E-006    0.284607179278690     
  8.820000000000000E-006     1.52341291811287     
  8.840000000000000E-006     2.71948712544189     
  8.860000000000000E-006     3.41894853846519     
  8.880000000000000E-006     3.17672333685919     
  8.899999999999999E-006     1.71956819723478     
  8.919999999999999E-006   -0.898689514456169     
  8.939999999999999E-006    -4.20821274561817     
  8.960000000000001E-006    -7.35175030042142     
  8.980000000000000E-006    -9.25370951649020     
  9.000000000000000E-006    -8.90828141198550     
  9.020000000000000E-006    -5.71796706986221     
  9.040000000000000E-006    0.219385754006518     
  9.060000000000000E-006     7.98011119857331     
  9.079999999999999E-006     15.9120826829418     
  9.099999999999999E-006     21.9655144096288     
  9.119999999999999E-006     24.1849906493126     
  9.140000000000001E-006     21.2274260001337     
  9.160000000000000E-006     12.7486319773403     
  9.180000000000000E-006   -0.465998003481285     
  9.200000000000000E-006    -16.6712947044870     
  9.220000000000000E-006    -33.5752574477304     
  9.240000000000000E-006    -48.8543059132573     
  9.259999999999999E-006    -60.5993909420610     
  9.279999999999999E-006    -67.5593128902248     
  9.299999999999999E-006    -69.1403203998870     
  9.320000000000001E-006    -65.2266395157159     
  9.340000000000000E-006    -55.9534466486416     
  9.360000000000000E-006    -41.5497147149471     
  9.380000000000000E-006    -22.2694537913560     
  9.400000000000000E-006     1.72095554728352     
  9.420000000000000E-006     30.7607879182092     
  9.439999999999999E-006     66.7121105467134     
  9.459999999999999E-006     114.774728447993     
  9.479999999999999E-006     186.084476609646     
  9.500000000000001E-006     300.822218954492     
  9.520000000000000E-006     491.413041636804     
  9.540000000000000E-006     805.392473276628     
  9.560000000000000E-006     1307.73477910926     
  9.580000000000000E-006     2082.79183616531     
  9.600000000000000E-006     3236.22683853560     
  9.619999999999999E-006     4897.31333824883     
  9.639999999999999E-006     7221.62276370245     
  9.660000000000001E-006     10393.2306962333     
  9.680000000000000E-006     14624.5250932842     
  9.700000000000000E-006     20151.0135776110     
  9.720000000000000E-006     27218.1768698698     
  9.740000000000000E-006     36057.5673229985     
  9.760000000000000E-006     46851.4046399036     
  9.780000000000000E-006     59686.3605163092     
  9.799999999999999E-006     74499.3602722989     
  9.819999999999999E-006     91020.3352366025     
  9.840000000000001E-006     108717.898441630     
  9.860000000000000E-006     126754.319702812     
  9.880000000000000E-006     143955.954340883     
  9.900000000000000E-006     158805.273119107     
  9.920000000000000E-006     169459.752663475     
  9.940000000000000E-006     173805.167563133     
  9.960000000000000E-006     169547.273304503     
  9.979999999999999E-006     154347.305576428     
  9.999999999999999E-006     126002.766954329     
  1.002000000000000E-005     82669.4736588557     
  1.004000000000000E-005     23113.8567128908     
  1.006000000000000E-005    -53023.5189088182     
  1.008000000000000E-005    -144979.456251440     
  1.010000000000000E-005    -250666.096319023     
  1.012000000000000E-005    -366547.577944128     
  1.014000000000000E-005    -487624.590619437     
  1.016000000000000E-005    -607547.246651635     
  1.018000000000000E-005    -718869.594096510     
  1.020000000000000E-005    -813438.529840150     
  1.022000000000000E-005    -882903.654022099     
  1.024000000000000E-005    -919321.225231548     
  1.026000000000000E-005    -915804.143268539     
  1.028000000000000E-005    -867175.643059857     
  1.030000000000000E-005    -770565.422197934     
  1.032000000000000E-005    -625883.439514627     
  1.034000000000000E-005    -436123.416900132     
  1.036000000000000E-005    -207446.240419426     
  1.038000000000000E-005     50984.2738790333     
  1.040000000000000E-005     327416.228578470     
  1.042000000000000E-005     608158.545707504     
  1.044000000000000E-005     878418.750139030     
  1.046000000000000E-005     1123261.07040540     
  1.048000000000000E-005     1328624.87332985     
  1.050000000000000E-005     1482302.37328041     
  1.052000000000000E-005     1574817.44352882     
  1.054000000000000E-005     1600123.38955151     