 -1.200000000000000E-006    0.000000000000000E+000
 -1.180000000000000E-006    0.000000000000000E+000
 -1.160000000000000E-006    0.000000000000000E+000
 -1.140000000000000E-006    0.000000000000000E+000
 -1.120000000000000E-006    0.000000000000000E+000
 -1.100000000000000E-006    0.000000000000000E+000
 -1.080000000000000E-006    0.000000000000000E+000
 -1.060000000000000E-006    0.000000000000000E+000
 -1.040000000000000E-006    0.000000000000000E+000
 -1.020000000000000E-006    0.000000000000000E+000
 -1.000000000000000E-006    0.000000000000000E+000
 -9.799999999999999E-007    0.000000000000000E+000
 -9.599999999999999E-007    0.000000000000000E+000
 -9.399999999999999E-007    0.000000000000000E+000
 -9.199999999999999E-007    0.000000000000000E+000
 -9.000000000000000E-007    0.000000000000000E+000
 -8.799999999999999E-007    0.000000000000000E+000
 -8.599999999999999E-007    0.000000000000000E+000
 -8.400000000000000E-007    0.000000000000000E+000
 -8.200000000000000E-007    0.000000000000000E+000
 -8.000000000000000E-007    0.000000000000000E+000
 -7.799999999999999E-007    0.000000000000000E+000
 -7.599999999999999E-007    0.000000000000000E+000
 -7.399999999999999E-007    0.000000000000000E+000
 -7.199999999999999E-007    0.000000000000000E+000
 -7.000000000000000E-007    0.000000000000000E+000
 -6.799999999999999E-007    0.000000000000000E+000
 -6.599999999999999E-007    0.000000000000000E+000
 -6.399999999999999E-007    0.000000000000000E+000
 -6.199999999999999E-007    0.000000000000000E+000
 -6.000000000000000E-007    0.000000000000000E+000
 -5.800000000000000E-007    0.000000000000000E+000
 -5.599999999999999E-007    0.000000000000000E+000
 -5.399999999999999E-007    0.000000000000000E+000
 -5.199999999999999E-007    0.000000000000000E+000
 -5.000000000000000E-007    0.000000000000000E+000
 -4.800000000000000E-007    0.000000000000000E+000
 -4.599999999999999E-007    0.000000000000000E+000
 -4.399999999999999E-007    0.000000000000000E+000
 -4.199999999999999E-007    0.000000000000000E+000
 -4.000000000000000E-007    0.000000000000000E+000
 -3.800000000000000E-007    0.000000000000000E+000
 -3.599999999999999E-007    0.000000000000000E+000
 -3.399999999999999E-007    0.000000000000000E+000
 -3.199999999999999E-007    0.000000000000000E+000
 -2.999999999999999E-007    0.000000000000000E+000
 -2.800000000000000E-007    0.000000000000000E+000
 -2.599999999999999E-007    0.000000000000000E+000
 -2.399999999999998E-007    0.000000000000000E+000
 -2.200000000000000E-007    0.000000000000000E+000
 -2.000000000000000E-007    0.000000000000000E+000
 -1.800000000000000E-007    0.000000000000000E+000
 -1.600000000000000E-007    0.000000000000000E+000
 -1.399999999999999E-007    0.000000000000000E+000
 -1.199999999999999E-007    0.000000000000000E+000
 -9.999999999999989E-008    0.000000000000000E+000
 -7.999999999999987E-008    0.000000000000000E+000
 -5.999999999999985E-008    0.000000000000000E+000
 -3.999999999999983E-008    0.000000000000000E+000
 -2.000000000000002E-008    0.000000000000000E+000
  0.000000000000000E+000    0.000000000000000E+000
  2.000000000000002E-008    0.000000000000000E+000
  4.000000000000004E-008    0.000000000000000E+000
  6.000000000000006E-008    0.000000000000000E+000
  8.000000000000008E-008    0.000000000000000E+000
  1.000000000000001E-007    0.000000000000000E+000
  1.200000000000001E-007    0.000000000000000E+000
  1.400000000000001E-007    0.000000000000000E+000
  1.600000000000002E-007    0.000000000000000E+000
  1.800000000000002E-007    0.000000000000000E+000
  2.000000000000000E-007    0.000000000000000E+000
  2.200000000000000E-007    0.000000000000000E+000
  2.400000000000000E-007    0.000000000000000E+000
  2.600000000000001E-007    0.000000000000000E+000
  2.800000000000001E-007    0.000000000000000E+000
  3.000000000000001E-007    0.000000000000000E+000
  3.200000000000001E-007    0.000000000000000E+000
  3.400000000000001E-007    0.000000000000000E+000
  3.600000000000002E-007    0.000000000000000E+000
  3.800000000000002E-007    0.000000000000000E+000
  4.000000000000000E-007    0.000000000000000E+000
  4.200000000000000E-007    0.000000000000000E+000
  4.400000000000000E-007    0.000000000000000E+000
  4.600000000000000E-007    0.000000000000000E+000
  4.800000000000001E-007    0.000000000000000E+000
  5.000000000000001E-007    0.000000000000000E+000
  5.200000000000001E-007    0.000000000000000E+000
  5.400000000000001E-007    0.000000000000000E+000
  5.600000000000001E-007    0.000000000000000E+000
  5.800000000000002E-007    0.000000000000000E+000
  6.000000000000002E-007    0.000000000000000E+000
  6.200000000000000E-007    0.000000000000000E+000
  6.400000000000000E-007    0.000000000000000E+000
  6.600000000000000E-007    0.000000000000000E+000
  6.800000000000001E-007    0.000000000000000E+000
  7.000000000000001E-007    0.000000000000000E+000
  7.200000000000003E-007    0.000000000000000E+000
  7.400000000000001E-007    0.000000000000000E+000
  7.599999999999999E-007    0.000000000000000E+000
  7.800000000000002E-007    0.000000000000000E+000
  8.000000000000000E-007    0.000000000000000E+000
  8.200000000000002E-007    0.000000000000000E+000
  8.400000000000000E-007    0.000000000000000E+000
  8.600000000000002E-007    0.000000000000000E+000
  8.800000000000000E-007    0.000000000000000E+000
  9.000000000000003E-007    0.000000000000000E+000
  9.200000000000001E-007    0.000000000000000E+000
  9.399999999999999E-007    0.000000000000000E+000
  9.600000000000001E-007    0.000000000000000E+000
  9.799999999999999E-007    0.000000000000000E+000
  1.000000000000000E-006    0.000000000000000E+000
  1.020000000000000E-006    0.000000000000000E+000
  1.040000000000000E-006    0.000000000000000E+000
  1.060000000000000E-006    0.000000000000000E+000
  1.080000000000000E-006    0.000000000000000E+000
  1.100000000000000E-006    0.000000000000000E+000
  1.120000000000000E-006    0.000000000000000E+000
  1.140000000000000E-006    0.000000000000000E+000
  1.160000000000000E-006    0.000000000000000E+000
  1.180000000000000E-006    0.000000000000000E+000
  1.200000000000000E-006    0.000000000000000E+000
  1.220000000000000E-006    0.000000000000000E+000
  1.240000000000000E-006    0.000000000000000E+000
  1.260000000000000E-006    0.000000000000000E+000
  1.280000000000000E-006    0.000000000000000E+000
  1.300000000000000E-006    0.000000000000000E+000
  1.320000000000000E-006    0.000000000000000E+000
  1.340000000000000E-006    0.000000000000000E+000
  1.360000000000000E-006    0.000000000000000E+000
  1.380000000000000E-006    0.000000000000000E+000
  1.400000000000000E-006    0.000000000000000E+000
  1.420000000000000E-006    0.000000000000000E+000
  1.440000000000000E-006    0.000000000000000E+000
  1.460000000000000E-006    0.000000000000000E+000
  1.480000000000000E-006    0.000000000000000E+000
  1.500000000000000E-006    0.000000000000000E+000
  1.520000000000000E-006    0.000000000000000E+000
  1.540000000000000E-006    0.000000000000000E+000
  1.560000000000000E-006    0.000000000000000E+000
  1.580000000000000E-006    0.000000000000000E+000
  1.600000000000000E-006    0.000000000000000E+000
  1.620000000000000E-006    0.000000000000000E+000
  1.640000000000000E-006    0.000000000000000E+000
  1.660000000000000E-006    0.000000000000000E+000
  1.680000000000000E-006    0.000000000000000E+000
  1.700000000000000E-006    0.000000000000000E+000
  1.720000000000000E-006    0.000000000000000E+000
  1.740000000000000E-006    0.000000000000000E+000
  1.760000000000000E-006    0.000000000000000E+000
  1.780000000000000E-006    0.000000000000000E+000
  1.800000000000000E-006    0.000000000000000E+000
  1.820000000000000E-006    0.000000000000000E+000
  1.840000000000000E-006    0.000000000000000E+000
  1.860000000000000E-006    0.000000000000000E+000
  1.880000000000000E-006    0.000000000000000E+000
  1.900000000000000E-006    0.000000000000000E+000
  1.920000000000000E-006    0.000000000000000E+000
  1.940000000000000E-006    0.000000000000000E+000
  1.960000000000000E-006    0.000000000000000E+000
  1.980000000000000E-006    0.000000000000000E+000
  2.000000000000000E-006    0.000000000000000E+000
  2.020000000000000E-006    0.000000000000000E+000
  2.040000000000000E-006    0.000000000000000E+000
  2.060000000000000E-006    0.000000000000000E+000
  2.080000000000000E-006    0.000000000000000E+000
  2.100000000000000E-006    0.000000000000000E+000
  2.120000000000000E-006    0.000000000000000E+000
  2.140000000000000E-006    0.000000000000000E+000
  2.160000000000000E-006    0.000000000000000E+000
  2.180000000000000E-006    0.000000000000000E+000
  2.200000000000000E-006    0.000000000000000E+000
  2.220000000000000E-006    0.000000000000000E+000
  2.240000000000000E-006    0.000000000000000E+000
  2.260000000000000E-006    0.000000000000000E+000
  2.280000000000000E-006    0.000000000000000E+000
  2.300000000000000E-006    0.000000000000000E+000
  2.320000000000000E-006    0.000000000000000E+000
  2.340000000000000E-006    0.000000000000000E+000
  2.360000000000000E-006    0.000000000000000E+000
  2.380000000000000E-006    0.000000000000000E+000
  2.400000000000000E-006    0.000000000000000E+000
  2.420000000000000E-006    0.000000000000000E+000
  2.440000000000000E-006    0.000000000000000E+000
  2.460000000000000E-006    0.000000000000000E+000
  2.480000000000000E-006    0.000000000000000E+000
  2.500000000000000E-006    0.000000000000000E+000
  2.520000000000000E-006    0.000000000000000E+000
  2.540000000000000E-006    0.000000000000000E+000
  2.560000000000000E-006    0.000000000000000E+000
  2.580000000000000E-006    0.000000000000000E+000
  2.600000000000000E-006    0.000000000000000E+000
  2.620000000000000E-006    0.000000000000000E+000
  2.640000000000001E-006    0.000000000000000E+000
  2.660000000000000E-006    0.000000000000000E+000
  2.680000000000000E-006    0.000000000000000E+000
  2.700000000000000E-006    0.000000000000000E+000
  2.720000000000000E-006    0.000000000000000E+000
  2.740000000000000E-006    0.000000000000000E+000
  2.760000000000000E-006    0.000000000000000E+000
  2.780000000000000E-006    0.000000000000000E+000
  2.800000000000000E-006    0.000000000000000E+000
  2.820000000000001E-006    0.000000000000000E+000
  2.840000000000000E-006    0.000000000000000E+000
  2.860000000000000E-006    0.000000000000000E+000
  2.880000000000000E-006    0.000000000000000E+000
  2.900000000000000E-006    0.000000000000000E+000
  2.920000000000000E-006    0.000000000000000E+000
  2.940000000000000E-006    0.000000000000000E+000
  2.960000000000000E-006    0.000000000000000E+000
  2.980000000000000E-006    0.000000000000000E+000
  3.000000000000000E-006    0.000000000000000E+000
  3.020000000000000E-006    0.000000000000000E+000
  3.040000000000000E-006    0.000000000000000E+000
  3.060000000000000E-006    0.000000000000000E+000
  3.080000000000000E-006    0.000000000000000E+000
  3.100000000000000E-006    0.000000000000000E+000
  3.120000000000000E-006    0.000000000000000E+000
  3.140000000000000E-006    0.000000000000000E+000
  3.160000000000000E-006    0.000000000000000E+000
  3.180000000000000E-006    0.000000000000000E+000
  3.200000000000000E-006    0.000000000000000E+000
  3.220000000000000E-006    0.000000000000000E+000
  3.240000000000000E-006    0.000000000000000E+000
  3.260000000000001E-006    0.000000000000000E+000
  3.280000000000000E-006    0.000000000000000E+000
  3.300000000000000E-006    0.000000000000000E+000
  3.320000000000000E-006    0.000000000000000E+000
  3.340000000000000E-006    0.000000000000000E+000
  3.360000000000000E-006    0.000000000000000E+000
  3.380000000000000E-006    0.000000000000000E+000
  3.400000000000000E-006    0.000000000000000E+000
  3.420000000000000E-006    0.000000000000000E+000
  3.440000000000001E-006    0.000000000000000E+000
  3.460000000000000E-006    0.000000000000000E+000
  3.480000000000000E-006    0.000000000000000E+000
  3.500000000000000E-006    0.000000000000000E+000
  3.520000000000000E-006    0.000000000000000E+000
  3.540000000000000E-006    0.000000000000000E+000
  3.560000000000000E-006    0.000000000000000E+000
  3.580000000000000E-006    0.000000000000000E+000
  3.600000000000000E-006    0.000000000000000E+000
  3.620000000000000E-006    0.000000000000000E+000
  3.640000000000000E-006    0.000000000000000E+000
  3.660000000000000E-006    0.000000000000000E+000
  3.680000000000000E-006    0.000000000000000E+000
  3.700000000000001E-006    0.000000000000000E+000
  3.720000000000000E-006    0.000000000000000E+000
  3.740000000000000E-006    0.000000000000000E+000
  3.760000000000000E-006    0.000000000000000E+000
  3.780000000000000E-006    0.000000000000000E+000
  3.800000000000000E-006    0.000000000000000E+000
  3.820000000000001E-006    0.000000000000000E+000
  3.840000000000001E-006    0.000000000000000E+000
  3.860000000000000E-006    0.000000000000000E+000
  3.880000000000000E-006    0.000000000000000E+000
  3.900000000000000E-006    0.000000000000000E+000
  3.920000000000000E-006    0.000000000000000E+000
  3.940000000000000E-006    0.000000000000000E+000
  3.959999999999999E-006    0.000000000000000E+000
  3.980000000000001E-006    0.000000000000000E+000
  4.000000000000001E-006    0.000000000000000E+000
  4.020000000000000E-006    0.000000000000000E+000
  4.040000000000000E-006    0.000000000000000E+000
  4.060000000000000E-006    0.000000000000000E+000
  4.080000000000000E-006    0.000000000000000E+000
  4.100000000000000E-006    0.000000000000000E+000
  4.120000000000000E-006    0.000000000000000E+000
  4.139999999999999E-006    0.000000000000000E+000
  4.160000000000001E-006    0.000000000000000E+000
  4.180000000000001E-006    0.000000000000000E+000
  4.200000000000000E-006    0.000000000000000E+000
  4.220000000000000E-006    0.000000000000000E+000
  4.240000000000000E-006    0.000000000000000E+000
  4.260000000000000E-006    0.000000000000000E+000
  4.280000000000000E-006    0.000000000000000E+000
  4.299999999999999E-006    0.000000000000000E+000
  4.320000000000001E-006    0.000000000000000E+000
  4.340000000000001E-006    0.000000000000000E+000
  4.360000000000001E-006    0.000000000000000E+000
  4.380000000000000E-006    0.000000000000000E+000
  4.400000000000000E-006    0.000000000000000E+000
  4.420000000000000E-006    0.000000000000000E+000
  4.440000000000000E-006    0.000000000000000E+000
  4.460000000000000E-006    0.000000000000000E+000
  4.479999999999999E-006    0.000000000000000E+000
  4.500000000000001E-006    0.000000000000000E+000
  4.520000000000001E-006    0.000000000000000E+000
  4.540000000000001E-006    0.000000000000000E+000
  4.560000000000000E-006    0.000000000000000E+000
  4.580000000000000E-006    0.000000000000000E+000
  4.600000000000000E-006    0.000000000000000E+000
  4.620000000000000E-006    0.000000000000000E+000
  4.640000000000000E-006    0.000000000000000E+000
  4.659999999999999E-006    0.000000000000000E+000
  4.680000000000001E-006    0.000000000000000E+000
  4.700000000000001E-006    0.000000000000000E+000
  4.720000000000001E-006    0.000000000000000E+000
  4.740000000000000E-006    0.000000000000000E+000
  4.760000000000000E-006    0.000000000000000E+000
  4.780000000000000E-006    0.000000000000000E+000
  4.800000000000000E-006    0.000000000000000E+000
  4.820000000000000E-006    0.000000000000000E+000
  4.839999999999999E-006    0.000000000000000E+000
  4.860000000000001E-006    0.000000000000000E+000
  4.880000000000001E-006    0.000000000000000E+000
  4.900000000000001E-006    0.000000000000000E+000
  4.920000000000000E-006    0.000000000000000E+000
  4.940000000000000E-006    0.000000000000000E+000
  4.960000000000000E-006    0.000000000000000E+000
  4.980000000000000E-006    0.000000000000000E+000
  5.000000000000000E-006    0.000000000000000E+000
  5.019999999999999E-006    0.000000000000000E+000
  5.040000000000001E-006    0.000000000000000E+000
  5.060000000000001E-006    0.000000000000000E+000
  5.080000000000000E-006    0.000000000000000E+000
  5.100000000000000E-006    0.000000000000000E+000
  5.120000000000000E-006    0.000000000000000E+000
  5.140000000000000E-006    0.000000000000000E+000
  5.160000000000000E-006    0.000000000000000E+000
  5.180000000000000E-006    0.000000000000000E+000
  5.199999999999999E-006    0.000000000000000E+000
  5.220000000000001E-006    0.000000000000000E+000
  5.240000000000001E-006    0.000000000000000E+000
  5.260000000000000E-006    0.000000000000000E+000
  5.280000000000000E-006    0.000000000000000E+000
  5.300000000000000E-006    0.000000000000000E+000
  5.320000000000000E-006    0.000000000000000E+000
  5.340000000000000E-006    0.000000000000000E+000
  5.360000000000000E-006    0.000000000000000E+000
  5.380000000000001E-006    0.000000000000000E+000
  5.400000000000001E-006    0.000000000000000E+000
  5.420000000000001E-006    0.000000000000000E+000
  5.440000000000000E-006    0.000000000000000E+000
  5.460000000000000E-006    0.000000000000000E+000
  5.480000000000000E-006    0.000000000000000E+000
  5.500000000000000E-006    0.000000000000000E+000
  5.520000000000000E-006    0.000000000000000E+000
  5.539999999999999E-006    0.000000000000000E+000
  5.560000000000001E-006    0.000000000000000E+000
  5.580000000000001E-006    0.000000000000000E+000
  5.600000000000001E-006    0.000000000000000E+000
  5.620000000000000E-006    0.000000000000000E+000
  5.640000000000000E-006    0.000000000000000E+000
  5.660000000000000E-006    0.000000000000000E+000
  5.680000000000000E-006    0.000000000000000E+000
  5.700000000000000E-006    0.000000000000000E+000
  5.719999999999999E-006    0.000000000000000E+000
  5.740000000000001E-006    0.000000000000000E+000
  5.760000000000001E-006    0.000000000000000E+000
  5.780000000000001E-006    0.000000000000000E+000
  5.800000000000000E-006    0.000000000000000E+000
  5.820000000000000E-006    0.000000000000000E+000
  5.840000000000000E-006    0.000000000000000E+000
  5.860000000000000E-006    0.000000000000000E+000
  5.880000000000000E-006    0.000000000000000E+000
  5.899999999999999E-006    0.000000000000000E+000
  5.920000000000001E-006    0.000000000000000E+000
  5.940000000000001E-006    0.000000000000000E+000
  5.960000000000001E-006    0.000000000000000E+000
  5.980000000000000E-006    0.000000000000000E+000
  6.000000000000000E-006    0.000000000000000E+000
  6.020000000000000E-006    0.000000000000000E+000
  6.040000000000000E-006    0.000000000000000E+000
  6.060000000000000E-006    0.000000000000000E+000
  6.079999999999999E-006    0.000000000000000E+000
  6.100000000000001E-006    0.000000000000000E+000
  6.120000000000001E-006    0.000000000000000E+000
  6.140000000000001E-006    0.000000000000000E+000
  6.160000000000000E-006    4.754939832714631E-038
  6.180000000000000E-006    9.509879665429263E-038
  6.200000000000000E-006   -8.647921217083621E-039
  6.220000000000000E-006   -1.123946390884599E-037
  6.240000000000000E-006   -1.571972530144648E-037
  6.260000000000001E-006   -2.127381421924486E-037
  6.280000000000001E-006   -4.304815217307324E-037
  6.300000000000001E-006   -6.231833671062356E-037
  6.320000000000000E-006   -3.042794779721531E-037
  6.340000000000000E-006   -2.439996781882253E-037
  6.360000000000000E-006   -3.878733680203230E-037
  6.380000000000000E-006   -1.016041289860230E-036
  6.400000000000000E-006   -2.109590892202486E-036
  6.420000000000000E-006   -2.617730594271536E-036
  6.439999999999999E-006   -4.902210090763776E-037
  6.459999999999999E-006    3.631015584618460E-036
  6.480000000000001E-006    6.339872694508608E-036
  6.500000000000000E-006    2.231733631627142E-036
  6.520000000000000E-006   -1.059809037140859E-035
  6.540000000000000E-006   -2.141777546166168E-035
  6.560000000000000E-006   -1.706480094402348E-035
  6.580000000000000E-006    8.017668315451775E-036
  6.599999999999999E-006    4.551444204973393E-035
  6.619999999999999E-006    6.651147033643987E-035
  6.639999999999999E-006    3.437401359024854E-035
  6.660000000000001E-006   -6.294098916841969E-035
  6.680000000000000E-006   -1.780031435330247E-034
  6.700000000000000E-006   -2.007237523362125E-034
  6.720000000000000E-006   -2.393952914204296E-035
  6.740000000000000E-006    3.370447459302212E-034
  6.760000000000000E-006    6.543945548868302E-034
  6.779999999999999E-006    5.460409634711508E-034
  6.799999999999999E-006   -2.484380615193053E-034
  6.819999999999999E-006   -1.478873842161657E-033
  6.840000000000001E-006   -2.215814374455731E-033
  6.860000000000000E-006   -1.247536161135641E-033
  6.880000000000000E-006    1.899364654378850E-033
  6.900000000000000E-006    5.825524250035541E-033
  6.920000000000000E-006    7.099785362049600E-033
  6.940000000000000E-006    2.072203865284937E-033
  6.959999999999999E-006   -9.552516455008702E-033
  6.979999999999999E-006   -2.152817976944664E-032
  6.999999999999999E-006   -2.183126375261007E-032
  7.020000000000001E-006    5.477631449768767E-035
  7.040000000000000E-006    4.120204951544217E-032
  7.060000000000000E-006    7.664667902994448E-032
  7.080000000000000E-006    6.547637955766467E-032
  7.100000000000000E-006   -2.197097261578185E-032
  7.120000000000000E-006   -1.647737611147844E-031
  7.139999999999999E-006   -2.684366112044413E-031
  7.159999999999999E-006   -1.946714414448338E-031
  7.179999999999999E-006    1.400524019675253E-031
  7.200000000000001E-006    6.342018215948921E-031
  7.220000000000000E-006    9.387351999796859E-031
  7.240000000000000E-006    5.821442519196217E-031
  7.260000000000000E-006   -6.751872982804971E-031
  7.280000000000000E-006   -2.399988216672446E-030
  7.300000000000000E-006   -3.309899301089156E-030
  7.319999999999999E-006   -1.768203538353477E-030
  7.339999999999999E-006    2.932850420169988E-030
  7.359999999999999E-006    9.039203251076507E-030
  7.380000000000000E-006    1.181650798162059E-029
  7.400000000000000E-006    5.470235317518102E-030
  7.420000000000000E-006   -1.214571151091793E-029
  7.440000000000000E-006   -3.407501214955657E-029
  7.460000000000000E-006   -4.269705155870405E-029
  7.480000000000000E-006   -1.716947336467157E-029
  7.499999999999999E-006    4.908788256729724E-029
  7.519999999999999E-006    1.286949714475434E-028
  7.540000000000001E-006    1.556558047582557E-028
  7.560000000000000E-006    5.428874733298588E-029
  7.580000000000000E-006   -1.953968140768354E-028
  7.600000000000000E-006   -4.861427063444365E-028
  7.620000000000000E-006   -5.702384961641368E-028
  7.640000000000000E-006   -1.719812514199414E-028
  7.660000000000000E-006    7.676886252130637E-028
  7.679999999999999E-006    1.831541902534989E-027
  7.699999999999999E-006    2.092150546966452E-027
  7.720000000000001E-006    5.463090367255264E-028
  7.740000000000000E-006   -2.973801965386208E-027
  7.760000000000000E-006   -6.863027935331502E-027
  7.780000000000000E-006   -7.670442197135859E-027
  7.800000000000000E-006   -1.758202687247068E-027
  7.820000000000000E-006    1.133305484976780E-026
  7.839999999999999E-006    2.551939159870074E-026
  7.859999999999999E-006    2.807293227176899E-026
  7.879999999999999E-006    5.854597705721559E-027
  7.900000000000001E-006   -4.238717834513136E-026
  7.920000000000000E-006   -9.400693883680801E-026
  7.940000000000000E-006   -1.025450856826192E-025
  7.960000000000000E-006   -2.070313162228119E-026
  7.980000000000000E-006    1.552261029457115E-025
  8.000000000000000E-006    3.426593863800622E-025
  8.019999999999999E-006    3.739075520005468E-025
  8.039999999999999E-006    7.909716275225431E-026
  8.059999999999999E-006   -5.552375210332155E-025
  8.080000000000001E-006   -1.234651372456233E-024
  8.100000000000000E-006   -1.361021049791174E-024
  8.120000000000000E-006   -3.250656906468393E-025
  8.140000000000000E-006    1.934366418700921E-024
  8.160000000000000E-006    4.392985716561555E-024
  8.180000000000000E-006    4.943646800328364E-024
  8.199999999999999E-006    1.403431644807326E-024
  8.219999999999999E-006   -6.538367077941928E-024
  8.239999999999999E-006   -1.541472122623169E-023
  8.260000000000001E-006   -1.790029385633970E-023
  8.280000000000000E-006   -6.186759951436577E-024
  8.300000000000000E-006    2.132050394553195E-023
  8.320000000000000E-006    5.324722392260773E-023
  8.340000000000000E-006    6.449581649314248E-023
  8.360000000000000E-006    2.722333973114470E-023
  8.379999999999999E-006   -6.646382989202722E-023
  8.399999999999999E-006   -1.806170288921255E-022
  8.419999999999999E-006   -2.306644715837705E-022
  8.440000000000001E-006   -1.178709303811527E-022
  8.460000000000000E-006    1.949931115404127E-022
  8.480000000000000E-006    5.995489458860739E-022
  8.500000000000000E-006    8.163040700160449E-022
  8.520000000000000E-006    4.981425791669280E-022
  8.540000000000000E-006   -5.221431291148335E-022
  8.559999999999999E-006   -1.938267793732677E-021
  8.579999999999999E-006   -2.847959583869580E-021
  8.600000000000001E-006   -2.045887888625020E-021
  8.620000000000000E-006    1.184952946336934E-021
  8.640000000000000E-006    6.061087156952751E-021
  8.660000000000000E-006    9.753189889651972E-021
  8.680000000000000E-006    8.145016261954967E-021
  8.700000000000000E-006   -1.707715972084962E-021
  8.720000000000000E-006   -1.814566261684843E-020
  8.739999999999999E-006   -3.261980709358532E-020
  8.759999999999999E-006   -3.137258676386297E-020
  8.780000000000001E-006   -2.805008648969495E-021
  8.800000000000000E-006    5.114146591528619E-020
  8.820000000000000E-006    1.058841157344426E-019
  8.840000000000000E-006    1.166791225244647E-019
  8.860000000000000E-006    3.965092687865497E-020
  8.880000000000000E-006   -1.314860533997970E-019
  8.899999999999999E-006   -3.308726118688336E-019
  8.919999999999999E-006   -4.179120742778586E-019
  8.939999999999999E-006   -2.333250265768611E-019
  8.960000000000001E-006    2.864377228012239E-019
  8.980000000000000E-006    9.838477472598238E-019
  9.000000000000000E-006    1.436157345986005E-018
  9.020000000000000E-006    1.089526321631241E-018
  9.040000000000000E-006   -4.000072409261259E-019
  9.060000000000000E-006   -2.732423180019640E-018
  9.079999999999999E-006   -4.708917522869959E-018
  9.099999999999999E-006   -4.491961163944302E-018
  9.119999999999999E-006   -5.634126370286048E-019
  9.140000000000001E-006    6.844387992704804E-018
  9.160000000000000E-006    1.460415782041612E-017
  9.180000000000000E-006    1.693677176435676E-017
  9.200000000000000E-006    7.887721187213828E-018
  9.220000000000000E-006   -1.420916003771520E-017
  9.240000000000000E-006   -4.223038330858989E-017
  9.259999999999999E-006   -5.913441344051417E-017
  9.279999999999999E-006   -4.355718257855600E-017
  9.299999999999999E-006    1.715714542029756E-017
  9.320000000000001E-006    1.108712737541438E-016
  9.340000000000000E-006    1.913887439326835E-016
  9.360000000000000E-006    1.879620858541621E-016
  9.380000000000000E-006    4.020263727507060E-017
  9.400000000000000E-006   -2.490808863038803E-016
  9.420000000000000E-006   -5.693031664340217E-016
  9.439999999999999E-006   -7.048175048188312E-016
  9.459999999999999E-006   -4.173142616313525E-016
  9.479999999999999E-006    3.948833557262178E-016
  9.500000000000001E-006    1.521726393433954E-015
  9.520000000000000E-006    2.367140553246982E-015
  9.540000000000000E-006    2.102541882166218E-015
  9.560000000000000E-006    1.010922696353467E-016
  9.580000000000000E-006   -3.459509055362144E-015
  9.600000000000000E-006   -7.139830563409953E-015
  9.619999999999999E-006   -8.360926549538296E-015
  9.639999999999999E-006   -4.434332716973854E-015
  9.660000000000001E-006    5.586551033062289E-015
  9.680000000000000E-006    1.896734098755677E-014
  9.700000000000000E-006    2.858342789607103E-014
  9.720000000000000E-006    2.482220406399387E-014
  9.740000000000000E-006    6.128823578137716E-016
  9.760000000000000E-006   -4.173913526671937E-014
  9.780000000000000E-006   -8.544114453181325E-014
  9.799999999999999E-006   -1.006372094706480E-013
  9.819999999999999E-006   -5.600324910967544E-014
  9.840000000000001E-006    6.038184205482225E-014
  9.860000000000000E-006    2.188670442226134E-013
  9.880000000000000E-006    3.392361098919295E-013
  9.900000000000000E-006    3.103992035066805E-013
  9.920000000000000E-006    4.533874252108276E-014
  9.940000000000000E-006   -4.417963800192690E-013
  9.960000000000000E-006   -9.738815767360562E-013
  9.979999999999999E-006   -1.217300274687295E-012
  9.999999999999999E-006   -7.999273866065911E-013
  1.002000000000000E-005    4.621341434077252E-013
  1.004000000000000E-005    2.307528634524325E-012
  1.006000000000000E-005    3.895365453810541E-012
  1.008000000000000E-005    3.969223125914510E-012
  1.010000000000000E-005    1.414660811688025E-012
  1.012000000000000E-005   -3.893417602510668E-012
  1.014000000000000E-005   -1.032172313035608E-011
  1.016000000000000E-005   -1.435449225836168E-011
  1.018000000000000E-005   -1.163705265811996E-011
  1.020000000000000E-005    7.109521497243973E-013
  1.022000000000000E-005    2.118039931281024E-011
  1.024000000000000E-005    4.186921056674533E-011
  1.026000000000000E-005    4.932141080126681E-011
  1.028000000000000E-005    2.956930859206317E-011
  1.030000000000000E-005   -2.309589106421657E-011
  1.032000000000000E-005   -9.683756656275826E-011
  1.034000000000000E-005   -1.581472713107330E-010
  1.036000000000000E-005   -1.589648780186052E-010
  1.038000000000000E-005   -5.789533740684341E-011
  1.040000000000000E-005    1.488021879080015E-010
  1.042000000000000E-005    3.998384899144562E-010
  1.044000000000000E-005    5.649243923727441E-010
  1.046000000000000E-005    4.819682537770023E-010
  1.048000000000000E-005    3.864973175715352E-011
  1.050000000000000E-005   -7.243041153262207E-010
  1.052000000000000E-005   -1.538929375314647E-009
  1.054000000000000E-005   -1.929935055216111E-009