 -1.200000000000000E-006    0.000000000000000E+000
 -1.180000000000000E-006    0.000000000000000E+000
 -1.160000000000000E-006    0.000000000000000E+000
 -1.140000000000000E-006    0.000000000000000E+000
 -1.120000000000000E-006    0.000000000000000E+000
 -1.100000000000000E-006    0.000000000000000E+000
 -1.080000000000000E-006    0.000000000000000E+000
 -1.060000000000000E-006    0.000000000000000E+000
 -1.040000000000000E-006    0.000000000000000E+000
 -1.020000000000000E-006    0.000000000000000E+000
 -1.000000000000000E-006    0.000000000000000E+000
 -9.799999999999999E-007    0.000000000000000E+000
 -9.599999999999999E-007    0.000000000000000E+000
 -9.399999999999999E-007    0.000000000000000E+000
 -9.199999999999999E-007    0.000000000000000E+000
 -9.000000000000000E-007    0.000000000000000E+000
 -8.799999999999999E-007    0.000000000000000E+000
 -8.599999999999999E-007    0.000000000000000E+000
 -8.400000000000000E-007    0.000000000000000E+000
 -8.200000000000000E-007    0.000000000000000E+000
 -8.000000000000000E-007    0.000000000000000E+000
 -7.799999999999999E-007    0.000000000000000E+000
 -7.599999999999999E-007    0.000000000000000E+000
 -7.399999999999999E-007    0.000000000000000E+000
 -7.199999999999999E-007    0.000000000000000E+000
 -7.000000000000000E-007    0.000000000000000E+000
 -6.799999999999999E-007    0.000000000000000E+000
 -6.599999999999999E-007    0.000000000000000E+000
 -6.399999999999999E-007    0.000000000000000E+000
 -6.199999999999999E-007    0.000000000000000E+000
 -6.000000000000000E-007    0.000000000000000E+000
 -5.800000000000000E-007    0.000000000000000E+000
 -5.599999999999999E-007    0.000000000000000E+000
 -5.399999999999999E-007    0.000000000000000E+000
 -5.199999999999999E-007    0.000000000000000E+000
 -5.000000000000000E-007    0.000000000000000E+000
 -4.800000000000000E-007    0.000000000000000E+000
 -4.599999999999999E-007    0.000000000000000E+000
 -4.399999999999999E-007    0.000000000000000E+000
 -4.199999999999999E-007    0.000000000000000E+000
 -4.000000000000000E-007    0.000000000000000E+000
 -3.800000000000000E-007    0.000000000000000E+000
 -3.599999999999999E-007    0.000000000000000E+000
 -3.399999999999999E-007    0.000000000000000E+000
 -3.199999999999999E-007    0.000000000000000E+000
 -2.999999999999999E-007    0.000000000000000E+000
 -2.800000000000000E-007    0.000000000000000E+000
 -2.599999999999999E-007    0.000000000000000E+000
 -2.399999999999998E-007    0.000000000000000E+000
 -2.200000000000000E-007    0.000000000000000E+000
 -2.000000000000000E-007    0.000000000000000E+000
 -1.800000000000000E-007    0.000000000000000E+000
 -1.600000000000000E-007    0.000000000000000E+000
 -1.399999999999999E-007    0.000000000000000E+000
 -1.199999999999999E-007    0.000000000000000E+000
 -9.999999999999989E-008    0.000000000000000E+000
 -7.999999999999987E-008    0.000000000000000E+000
 -5.999999999999985E-008    0.000000000000000E+000
 -3.999999999999983E-008    0.000000000000000E+000
 -2.000000000000002E-008    0.000000000000000E+000
  0.000000000000000E+000    0.000000000000000E+000
  2.000000000000002E-008    0.000000000000000E+000
  4.000000000000004E-008    0.000000000000000E+000
  6.000000000000006E-008    0.000000000000000E+000
  8.000000000000008E-008    0.000000000000000E+000
  1.000000000000001E-007    0.000000000000000E+000
  1.200000000000001E-007    0.000000000000000E+000
  1.400000000000001E-007    0.000000000000000E+000
  1.600000000000002E-007    0.000000000000000E+000
  1.800000000000002E-007    0.000000000000000E+000
  2.000000000000000E-007    0.000000000000000E+000
  2.200000000000000E-007    0.000000000000000E+000
  2.400000000000000E-007    0.000000000000000E+000
  2.600000000000001E-007    0.000000000000000E+000
  2.800000000000001E-007    0.000000000000000E+000
  3.000000000000001E-007    0.000000000000000E+000
  3.200000000000001E-007    0.000000000000000E+000
  3.400000000000001E-007    0.000000000000000E+000
  3.600000000000002E-007    0.000000000000000E+000
  3.800000000000002E-007    0.000000000000000E+000
  4.000000000000000E-007    0.000000000000000E+000
  4.200000000000000E-007    0.000000000000000E+000
  4.400000000000000E-007    0.000000000000000E+000
  4.600000000000000E-007    0.000000000000000E+000
  4.800000000000001E-007    0.000000000000000E+000
  5.000000000000001E-007    0.000000000000000E+000
  5.200000000000001E-007    0.000000000000000E+000
  5.400000000000001E-007    0.000000000000000E+000
  5.600000000000001E-007    0.000000000000000E+000
  5.800000000000002E-007    0.000000000000000E+000
  6.000000000000002E-007    0.000000000000000E+000
  6.200000000000000E-007    0.000000000000000E+000
  6.400000000000000E-007    0.000000000000000E+000
  6.600000000000000E-007    0.000000000000000E+000
  6.800000000000001E-007    0.000000000000000E+000
  7.000000000000001E-007    0.000000000000000E+000
  7.200000000000003E-007    0.000000000000000E+000
  7.400000000000001E-007    0.000000000000000E+000
  7.599999999999999E-007    0.000000000000000E+000
  7.800000000000002E-007    0.000000000000000E+000
  8.000000000000000E-007    0.000000000000000E+000
  8.200000000000002E-007    0.000000000000000E+000
  8.400000000000000E-007    0.000000000000000E+000
  8.600000000000002E-007    0.000000000000000E+000
  8.800000000000000E-007    0.000000000000000E+000
  9.000000000000003E-007    0.000000000000000E+000
  9.200000000000001E-007    0.000000000000000E+000
  9.399999999999999E-007    0.000000000000000E+000
  9.600000000000001E-007    0.000000000000000E+000
  9.799999999999999E-007    0.000000000000000E+000
  1.000000000000000E-006    0.000000000000000E+000
  1.020000000000000E-006    0.000000000000000E+000
  1.040000000000000E-006    0.000000000000000E+000
  1.060000000000000E-006    0.000000000000000E+000
  1.080000000000000E-006    0.000000000000000E+000
  1.100000000000000E-006    0.000000000000000E+000
  1.120000000000000E-006    0.000000000000000E+000
  1.140000000000000E-006    0.000000000000000E+000
  1.160000000000000E-006    0.000000000000000E+000
  1.180000000000000E-006    0.000000000000000E+000
  1.200000000000000E-006    0.000000000000000E+000
  1.220000000000000E-006    0.000000000000000E+000
  1.240000000000000E-006    0.000000000000000E+000
  1.260000000000000E-006    0.000000000000000E+000
  1.280000000000000E-006    0.000000000000000E+000
  1.300000000000000E-006    0.000000000000000E+000
  1.320000000000000E-006    0.000000000000000E+000
  1.340000000000000E-006    0.000000000000000E+000
  1.360000000000000E-006    0.000000000000000E+000
  1.380000000000000E-006    0.000000000000000E+000
  1.400000000000000E-006    0.000000000000000E+000
  1.420000000000000E-006    0.000000000000000E+000
  1.440000000000000E-006    0.000000000000000E+000
  1.460000000000000E-006    0.000000000000000E+000
  1.480000000000000E-006    0.000000000000000E+000
  1.500000000000000E-006    0.000000000000000E+000
  1.520000000000000E-006    0.000000000000000E+000
  1.540000000000000E-006    0.000000000000000E+000
  1.560000000000000E-006    0.000000000000000E+000
  1.580000000000000E-006    0.000000000000000E+000
  1.600000000000000E-006    0.000000000000000E+000
  1.620000000000000E-006    0.000000000000000E+000
  1.640000000000000E-006    0.000000000000000E+000
  1.660000000000000E-006    0.000000000000000E+000
  1.680000000000000E-006    0.000000000000000E+000
  1.700000000000000E-006    0.000000000000000E+000
  1.720000000000000E-006    0.000000000000000E+000
  1.740000000000000E-006    0.000000000000000E+000
  1.760000000000000E-006    0.000000000000000E+000
  1.780000000000000E-006    0.000000000000000E+000
  1.800000000000000E-006    0.000000000000000E+000
  1.820000000000000E-006    0.000000000000000E+000
  1.840000000000000E-006    0.000000000000000E+000
  1.860000000000000E-006    0.000000000000000E+000
  1.880000000000000E-006    0.000000000000000E+000
  1.900000000000000E-006    0.000000000000000E+000
  1.920000000000000E-006    0.000000000000000E+000
  1.940000000000000E-006    0.000000000000000E+000
  1.960000000000000E-006    0.000000000000000E+000
  1.980000000000000E-006    0.000000000000000E+000
  2.000000000000000E-006    0.000000000000000E+000
  2.020000000000000E-006    0.000000000000000E+000
  2.040000000000000E-006    0.000000000000000E+000
  2.060000000000000E-006    0.000000000000000E+000
  2.080000000000000E-006    0.000000000000000E+000
  2.100000000000000E-006    0.000000000000000E+000
  2.120000000000000E-006    0.000000000000000E+000
  2.140000000000000E-006    0.000000000000000E+000
  2.160000000000000E-006    0.000000000000000E+000
  2.180000000000000E-006    0.000000000000000E+000
  2.200000000000000E-006    0.000000000000000E+000
  2.220000000000000E-006    0.000000000000000E+000
  2.240000000000000E-006    0.000000000000000E+000
  2.260000000000000E-006    0.000000000000000E+000
  2.280000000000000E-006    0.000000000000000E+000
  2.300000000000000E-006    0.000000000000000E+000
  2.320000000000000E-006    0.000000000000000E+000
  2.340000000000000E-006    0.000000000000000E+000
  2.360000000000000E-006    0.000000000000000E+000
  2.380000000000000E-006    0.000000000000000E+000
  2.400000000000000E-006    0.000000000000000E+000
  2.420000000000000E-006    0.000000000000000E+000
  2.440000000000000E-006    0.000000000000000E+000
  2.460000000000000E-006    0.000000000000000E+000
  2.480000000000000E-006    0.000000000000000E+000
  2.500000000000000E-006    0.000000000000000E+000
  2.520000000000000E-006    0.000000000000000E+000
  2.540000000000000E-006    0.000000000000000E+000
  2.560000000000000E-006    0.000000000000000E+000
  2.580000000000000E-006    0.000000000000000E+000
  2.600000000000000E-006    0.000000000000000E+000
  2.620000000000000E-006    0.000000000000000E+000
  2.640000000000001E-006    0.000000000000000E+000
  2.660000000000000E-006    0.000000000000000E+000
  2.680000000000000E-006    0.000000000000000E+000
  2.700000000000000E-006    0.000000000000000E+000
  2.720000000000000E-006    0.000000000000000E+000
  2.740000000000000E-006    0.000000000000000E+000
  2.760000000000000E-006    0.000000000000000E+000
  2.780000000000000E-006    0.000000000000000E+000
  2.800000000000000E-006    0.000000000000000E+000
  2.820000000000001E-006    0.000000000000000E+000
  2.840000000000000E-006    0.000000000000000E+000
  2.860000000000000E-006    0.000000000000000E+000
  2.880000000000000E-006    0.000000000000000E+000
  2.900000000000000E-006    0.000000000000000E+000
  2.920000000000000E-006    0.000000000000000E+000
  2.940000000000000E-006    0.000000000000000E+000
  2.960000000000000E-006    0.000000000000000E+000
  2.980000000000000E-006    0.000000000000000E+000
  3.000000000000000E-006    0.000000000000000E+000
  3.020000000000000E-006    0.000000000000000E+000
  3.040000000000000E-006    0.000000000000000E+000
  3.060000000000000E-006    0.000000000000000E+000
  3.080000000000000E-006    0.000000000000000E+000
  3.100000000000000E-006    0.000000000000000E+000
  3.120000000000000E-006    0.000000000000000E+000
  3.140000000000000E-006    0.000000000000000E+000
  3.160000000000000E-006    0.000000000000000E+000
  3.180000000000000E-006    0.000000000000000E+000
  3.200000000000000E-006    0.000000000000000E+000
  3.220000000000000E-006    0.000000000000000E+000
  3.240000000000000E-006    0.000000000000000E+000
  3.260000000000001E-006    0.000000000000000E+000
  3.280000000000000E-006    0.000000000000000E+000
  3.300000000000000E-006    0.000000000000000E+000
  3.320000000000000E-006    0.000000000000000E+000
  3.340000000000000E-006    0.000000000000000E+000
  3.360000000000000E-006    0.000000000000000E+000
  3.380000000000000E-006    0.000000000000000E+000
  3.400000000000000E-006    0.000000000000000E+000
  3.420000000000000E-006    0.000000000000000E+000
  3.440000000000001E-006    0.000000000000000E+000
  3.460000000000000E-006    0.000000000000000E+000
  3.480000000000000E-006    0.000000000000000E+000
  3.500000000000000E-006    0.000000000000000E+000
  3.520000000000000E-006    0.000000000000000E+000
  3.540000000000000E-006    0.000000000000000E+000
  3.560000000000000E-006    0.000000000000000E+000
  3.580000000000000E-006    0.000000000000000E+000
  3.600000000000000E-006    0.000000000000000E+000
  3.620000000000000E-006    0.000000000000000E+000
  3.640000000000000E-006    0.000000000000000E+000
  3.660000000000000E-006    0.000000000000000E+000
  3.680000000000000E-006    0.000000000000000E+000
  3.700000000000001E-006    0.000000000000000E+000
  3.720000000000000E-006    0.000000000000000E+000
  3.740000000000000E-006    0.000000000000000E+000
  3.760000000000000E-006    0.000000000000000E+000
  3.780000000000000E-006    0.000000000000000E+000
  3.800000000000000E-006    0.000000000000000E+000
  3.820000000000001E-006    0.000000000000000E+000
  3.840000000000001E-006    0.000000000000000E+000
  3.860000000000000E-006    0.000000000000000E+000
  3.880000000000000E-006    0.000000000000000E+000
  3.900000000000000E-006    0.000000000000000E+000
  3.920000000000000E-006    0.000000000000000E+000
  3.940000000000000E-006    0.000000000000000E+000
  3.959999999999999E-006    0.000000000000000E+000
  3.980000000000001E-006    0.000000000000000E+000
  4.000000000000001E-006    0.000000000000000E+000
  4.020000000000000E-006    0.000000000000000E+000
  4.040000000000000E-006    0.000000000000000E+000
  4.060000000000000E-006    0.000000000000000E+000
  4.080000000000000E-006    0.000000000000000E+000
  4.100000000000000E-006    0.000000000000000E+000
  4.120000000000000E-006    0.000000000000000E+000
  4.139999999999999E-006    0.000000000000000E+000
  4.160000000000001E-006    0.000000000000000E+000
  4.180000000000001E-006    0.000000000000000E+000
  4.200000000000000E-006    0.000000000000000E+000
  4.220000000000000E-006    0.000000000000000E+000
  4.240000000000000E-006    0.000000000000000E+000
  4.260000000000000E-006    0.000000000000000E+000
  4.280000000000000E-006    0.000000000000000E+000
  4.299999999999999E-006    0.000000000000000E+000
  4.320000000000001E-006    0.000000000000000E+000
  4.340000000000001E-006    0.000000000000000E+000
  4.360000000000001E-006    0.000000000000000E+000
  4.380000000000000E-006    0.000000000000000E+000
  4.400000000000000E-006    0.000000000000000E+000
  4.420000000000000E-006    0.000000000000000E+000
  4.440000000000000E-006    0.000000000000000E+000
  4.460000000000000E-006    0.000000000000000E+000
  4.479999999999999E-006    0.000000000000000E+000
  4.500000000000001E-006    0.000000000000000E+000
  4.520000000000001E-006    0.000000000000000E+000
  4.540000000000001E-006    0.000000000000000E+000
  4.560000000000000E-006    0.000000000000000E+000
  4.580000000000000E-006    0.000000000000000E+000
  4.600000000000000E-006    0.000000000000000E+000
  4.620000000000000E-006    0.000000000000000E+000
  4.640000000000000E-006    0.000000000000000E+000
  4.659999999999999E-006    0.000000000000000E+000
  4.680000000000001E-006    0.000000000000000E+000
  4.700000000000001E-006    0.000000000000000E+000
  4.720000000000001E-006    0.000000000000000E+000
  4.740000000000000E-006    0.000000000000000E+000
  4.760000000000000E-006    0.000000000000000E+000
  4.780000000000000E-006    0.000000000000000E+000
  4.800000000000000E-006    0.000000000000000E+000
  4.820000000000000E-006    0.000000000000000E+000
  4.839999999999999E-006    0.000000000000000E+000
  4.860000000000001E-006    0.000000000000000E+000
  4.880000000000001E-006    0.000000000000000E+000
  4.900000000000001E-006    0.000000000000000E+000
  4.920000000000000E-006    0.000000000000000E+000
  4.940000000000000E-006    0.000000000000000E+000
  4.960000000000000E-006    0.000000000000000E+000
  4.980000000000000E-006    0.000000000000000E+000
  5.000000000000000E-006    0.000000000000000E+000
  5.019999999999999E-006    0.000000000000000E+000
  5.040000000000001E-006    0.000000000000000E+000
  5.060000000000001E-006    0.000000000000000E+000
  5.080000000000000E-006    0.000000000000000E+000
  5.100000000000000E-006    0.000000000000000E+000
  5.120000000000000E-006    0.000000000000000E+000
  5.140000000000000E-006    0.000000000000000E+000
  5.160000000000000E-006    0.000000000000000E+000
  5.180000000000000E-006    0.000000000000000E+000
  5.199999999999999E-006    0.000000000000000E+000
  5.220000000000001E-006    0.000000000000000E+000
  5.240000000000001E-006    0.000000000000000E+000
  5.260000000000000E-006    0.000000000000000E+000
  5.280000000000000E-006    0.000000000000000E+000
  5.300000000000000E-006    0.000000000000000E+000
  5.320000000000000E-006    0.000000000000000E+000
  5.340000000000000E-006    0.000000000000000E+000
  5.360000000000000E-006    0.000000000000000E+000
  5.380000000000001E-006    0.000000000000000E+000
  5.400000000000001E-006    0.000000000000000E+000
  5.420000000000001E-006    0.000000000000000E+000
  5.440000000000000E-006    0.000000000000000E+000
  5.460000000000000E-006    0.000000000000000E+000
  5.480000000000000E-006    0.000000000000000E+000
  5.500000000000000E-006    0.000000000000000E+000
  5.520000000000000E-006    0.000000000000000E+000
  5.539999999999999E-006    0.000000000000000E+000
  5.560000000000001E-006    0.000000000000000E+000
  5.580000000000001E-006    0.000000000000000E+000
  5.600000000000001E-006    3.405257305052877E-039
  5.620000000000000E-006    6.810514610105754E-039
  5.640000000000000E-006    1.959869680979328E-039
  5.660000000000000E-006   -2.890775248147099E-039
  5.680000000000000E-006   -3.646309694018067E-039
  5.700000000000000E-006   -5.652239493638083E-039
  5.719999999999999E-006   -1.692604292210390E-038
  5.740000000000001E-006   -1.423831692842102E-038
  5.760000000000001E-006    1.746699247676662E-038
  5.780000000000001E-006    5.632908559116282E-038
  5.800000000000000E-006    4.241256673955069E-038
  5.820000000000000E-006   -3.507127401170901E-037
  5.840000000000000E-006   -7.518445822732059E-037
  5.860000000000000E-006   -8.503363106016622E-037
  5.880000000000000E-006   -6.084487998759612E-037
  5.899999999999999E-006   -5.885053301951195E-037
  5.920000000000001E-006   -1.668615978092891E-036
  5.940000000000001E-006   -3.925618416864059E-036
  5.960000000000001E-006   -3.819716732419239E-036
  5.980000000000000E-006   -1.649427181461846E-037
  6.000000000000000E-006    5.835222164976583E-036
  6.020000000000000E-006    8.096797250820200E-036
  6.040000000000000E-006    2.749151389488008E-036
  6.060000000000000E-006   -9.028277950740219E-036
  6.079999999999999E-006   -2.262178081765912E-035
  6.100000000000001E-006   -2.354858766541899E-035
  6.120000000000001E-006    5.609629956484954E-036
  6.140000000000001E-006    5.952431174185084E-035
  6.160000000000000E-006    9.302193623875321E-035
  6.180000000000000E-006    4.657233436275148E-035
  6.200000000000000E-006   -9.985207994759596E-035
  6.220000000000000E-006   -2.657908110929901E-034
  6.240000000000000E-006   -2.734281564677914E-034
  6.260000000000001E-006    3.087387590001994E-035
  6.280000000000001E-006    5.836148758339925E-034
  6.300000000000001E-006    9.778177026617773E-034
  6.320000000000000E-006    6.109204276196717E-034
  6.340000000000000E-006   -7.974306163717562E-034
  6.360000000000000E-006   -2.594866786557648E-033
  6.380000000000000E-006   -3.100665468525705E-033
  6.400000000000000E-006   -5.652854657661334E-034
  6.420000000000000E-006    4.929438628790365E-033
  6.439999999999999E-006    9.918697876308331E-033
  6.459999999999999E-006    8.394908888478496E-033
  6.480000000000001E-006   -3.826964182729116E-033
  6.500000000000000E-006   -2.289297308133196E-032
  6.520000000000000E-006   -3.400038057193232E-032
  6.540000000000000E-006   -1.789900673547955E-032
  6.560000000000000E-006    3.214526774326228E-032
  6.580000000000000E-006    9.216363284220567E-032
  6.599999999999999E-006    1.063601904736325E-031
  6.619999999999999E-006    1.898630018259179E-032
  6.639999999999999E-006   -1.663272406341737E-031
  6.660000000000001E-006   -3.390517836589102E-031
  6.680000000000000E-006   -3.056898512368994E-031
  6.700000000000000E-006    7.922450528642206E-032
  6.720000000000000E-006    7.202130475488874E-031
  6.740000000000000E-006    1.173209903097950E-030
  6.760000000000000E-006    8.052041933002283E-031
  6.779999999999999E-006   -7.179646898641846E-031
  6.799999999999999E-006   -2.835531914380200E-030
  6.819999999999999E-006   -3.899229558757934E-030
  6.840000000000001E-006   -1.914904539351152E-030
  6.860000000000000E-006    3.745573398852462E-030
  6.880000000000000E-006    1.055613586897213E-029
  6.900000000000000E-006    1.267687886892764E-029
  6.920000000000000E-006    3.935941108535826E-030
  6.940000000000000E-006   -1.635651153873203E-029
  6.959999999999999E-006   -3.807805113955668E-029
  6.979999999999999E-006   -4.102010501201412E-029
  6.999999999999999E-006   -6.020989585454799E-030
  7.020000000000001E-006    6.551683470000875E-029
  7.040000000000000E-006    1.354334398347502E-028
  7.060000000000000E-006    1.342081628731692E-028
  7.080000000000000E-006    9.789312443935918E-031
  7.100000000000000E-006   -2.505696925160510E-028
  7.120000000000000E-006   -4.809697822156480E-028
  7.139999999999999E-006   -4.493611673570466E-028
  7.159999999999999E-006    4.481071916027648E-029
  7.179999999999999E-006    9.354930690288463E-028
  7.200000000000001E-006    1.719234427646948E-027
  7.220000000000000E-006    1.549184084907962E-027
  7.240000000000000E-006   -2.632804524000768E-028
  7.260000000000000E-006   -3.453833105626566E-027
  7.280000000000000E-006   -6.207571478575562E-027
  7.300000000000000E-006   -5.497043890468403E-027
  7.319999999999999E-006    1.128579874444499E-027
  7.339999999999999E-006    1.269487202753279E-026
  7.359999999999999E-006    2.263549372121894E-026
  7.380000000000000E-006    1.997352990511036E-026
  7.400000000000000E-006   -4.238148724012365E-027
  7.420000000000000E-006   -4.655564243342733E-026
  7.440000000000000E-006   -8.313124934914920E-026
  7.460000000000000E-006   -7.379994217294467E-026
  7.480000000000000E-006    1.458500597258446E-026
  7.499999999999999E-006    1.701844660281737E-025
  7.519999999999999E-006    3.063141067928781E-025
  7.540000000000001E-006    2.754918178481645E-025
  7.560000000000000E-006   -4.589707489451907E-026
  7.580000000000000E-006   -6.183490836964015E-025
  7.600000000000000E-006   -1.127916963031996E-024
  7.620000000000000E-006   -1.033828184159846E-024
  7.640000000000000E-006    1.256845517953273E-025
  7.660000000000000E-006    2.224746630423703E-024
  7.679999999999999E-006    4.135818457690578E-024
  7.699999999999999E-006    3.886543018191506E-024
  7.720000000000001E-006   -2.463436399562685E-025
  7.740000000000000E-006   -7.893103779678457E-024
  7.760000000000000E-006   -1.505662116570178E-023
  7.780000000000000E-006   -1.460138369999318E-023
  7.800000000000000E-006   -1.109254589859543E-025
  7.820000000000000E-006    2.749290281926448E-023
  7.839999999999999E-006    5.428288753170030E-023
  7.859999999999999E-006    5.471062740644219E-023
  7.879999999999999E-006    4.961493719222211E-024
  7.900000000000001E-006   -9.355452136425928E-023
  7.920000000000000E-006   -1.933449500453123E-022
  7.940000000000000E-006   -2.040488851917521E-022
  7.960000000000000E-006   -3.766348314135752E-023
  7.980000000000000E-006    3.091594470708350E-022
  8.000000000000000E-006    6.786703224487700E-022
  8.019999999999999E-006    7.557890240304499E-022
  8.039999999999999E-006    2.172860445218028E-022
  8.059999999999999E-006   -9.840768781014479E-022
  8.080000000000001E-006   -2.341001957650724E-021
  8.100000000000000E-006   -2.772837017817973E-021
  8.120000000000000E-006   -1.102277627450161E-021
  8.140000000000000E-006    2.979776162721156E-021
  8.160000000000000E-006    7.907433525113899E-021
  8.180000000000000E-006    1.004550330166506E-020
  8.199999999999999E-006    5.154017183430584E-021
  8.219999999999999E-006   -8.398280597488340E-021
  8.239999999999999E-006   -2.603591191953988E-020
  8.260000000000001E-006   -3.581118436032618E-020
  8.280000000000000E-006   -2.267657346677587E-020
  8.300000000000000E-006    2.105607245649555E-020
  8.320000000000000E-006    8.304501994309166E-020
  8.340000000000000E-006    1.251186530129664E-019
  8.360000000000000E-006    9.485678865439770E-020
  8.379999999999999E-006   -4.131005773730715E-020
  8.399999999999999E-006   -2.543108458030881E-019
  8.419999999999999E-006   -4.264370480732110E-019
  8.440000000000001E-006   -3.792221070896559E-019
  8.460000000000000E-006    2.540579599982066E-020
  8.480000000000000E-006    7.372787165668814E-019
  8.500000000000000E-006    1.409775130924812E-018
  8.520000000000000E-006    1.452181129067962E-018
  8.540000000000000E-006    3.251624934869235E-019
  8.559999999999999E-006   -1.974146619102863E-018
  8.579999999999999E-006   -4.487728861811586E-018
  8.600000000000001E-006   -5.326841578746720E-018
  8.620000000000000E-006   -2.483507695939876E-018
  8.640000000000000E-006    4.632527271010412E-018
  8.660000000000000E-006    1.361538899580776E-017
  8.680000000000000E-006    1.868112045139672E-017
  8.700000000000000E-006    1.270081945152901E-017
  8.720000000000000E-006   -8.136803593773799E-018
  8.739999999999999E-006   -3.874654153092137E-017
  8.759999999999999E-006   -6.237563738239576E-017
  8.780000000000001E-006   -5.494051413947769E-017
  8.800000000000000E-006    1.597832508127276E-018
  8.820000000000000E-006    1.005153498316154E-016
  8.840000000000000E-006    1.968605668217169E-016
  8.860000000000000E-006    2.136025564542046E-016
  8.880000000000000E-006    7.718622276726782E-017
  8.899999999999999E-006   -2.231157827107121E-016
  8.919999999999999E-006   -5.800154189631434E-016
  8.939999999999999E-006   -7.623994343522053E-016
  8.960000000000001E-006   -4.995195291032884E-016
  8.980000000000000E-006    3.427587586016217E-016
  9.000000000000000E-006    1.559484453973275E-015
  9.020000000000000E-006    2.511062659588132E-015
  9.040000000000000E-006    2.283690610166725E-015
  9.060000000000000E-006    1.715011384985503E-016
  9.079999999999999E-006   -3.645451893644835E-015
  9.099999999999999E-006   -7.587933837012642E-015
  9.119999999999999E-006   -8.825690792421591E-015
  9.140000000000001E-006   -4.452471115486361E-015
  9.160000000000000E-006    6.436891467257053E-015
  9.180000000000000E-006    2.063675640126199E-014
  9.200000000000000E-006    3.019669972951075E-014
  9.220000000000000E-006    2.477071144886043E-014
  9.240000000000000E-006   -2.626701206117690E-015
  9.259999999999999E-006   -4.817728887922342E-014
  9.279999999999999E-006   -9.226000345785359E-014
  9.299999999999999E-006   -1.021841891795406E-013
  9.320000000000001E-006   -4.615770970592727E-014
  9.340000000000000E-006    8.349819599923002E-014
  9.360000000000000E-006    2.477681754833955E-013
  9.380000000000000E-006    3.553131201362891E-013
  9.400000000000000E-006    2.895892813922836E-013
  9.420000000000000E-006   -2.734943594769870E-014
  9.439999999999999E-006   -5.531744210032094E-013
  9.459999999999999E-006   -1.069946041880320E-012
  9.479999999999999E-006   -1.211672797522978E-012
  9.500000000000001E-006   -6.132885681699294E-013
  9.520000000000000E-006    8.371349759515252E-013
  9.540000000000000E-006    2.744233091060897E-012
  9.560000000000000E-006    4.121424794003890E-012
  9.580000000000000E-006    3.651713940020269E-012
  9.600000000000000E-006    3.536330024661737E-013
  9.619999999999999E-006   -5.519649190951317E-012
  9.639999999999999E-006   -1.179442343054233E-011
  9.660000000000001E-006   -1.451104407234889E-011
  9.680000000000000E-006   -9.349927180596225E-012
  9.700000000000000E-006    5.722634518669266E-012
  9.720000000000000E-006    2.752119586569595E-011
  9.740000000000000E-006    4.617395126228929E-011
  9.760000000000000E-006    4.708906436705502E-011
  9.780000000000000E-006    1.738061981418529E-011
  9.799999999999999E-006   -4.446386662154791E-011
  9.819999999999999E-006   -1.198373183106414E-010
  9.840000000000001E-006   -1.685336086570244E-010
  9.860000000000000E-006   -1.403778300193234E-010
  9.880000000000000E-006   -1.175093353307161E-012
  9.900000000000000E-006    2.342984501169887E-010
  9.920000000000000E-006    4.789033170413813E-010
  9.940000000000000E-006    5.808010226918630E-010
  9.960000000000000E-006    3.778134313779573E-010
  9.979999999999999E-006   -2.055153554920273E-010
  9.999999999999999E-006   -1.052022447135103E-009
  1.002000000000000E-005   -1.798776139518666E-009
  1.004000000000000E-005   -1.904876587963718E-009
  1.006000000000000E-005   -8.761776270636202E-010
  1.008000000000000E-005    1.392668673430440E-009
  1.010000000000000E-005    4.297601567163157E-009
  1.012000000000000E-005    6.440320015728398E-009
  1.014000000000000E-005    5.983524234281215E-009
  1.016000000000000E-005    1.507431138673882E-009
  1.018000000000000E-005   -6.842765151041037E-009
  1.020000000000000E-005   -1.644070996068216E-008
  1.022000000000000E-005   -2.220248369537585E-008
  1.024000000000000E-005   -1.812767644707773E-008
  1.026000000000000E-005   -3.709119886030548E-010
  1.028000000000000E-005    2.906344419703204E-008
  1.030000000000000E-005    5.984785541008995E-008
  1.032000000000000E-005    7.432316285068986E-008
  1.034000000000000E-005    5.349605340101052E-008
  1.036000000000000E-005   -1.246485454559208E-008
  1.038000000000000E-005   -1.127217289825782E-007
  1.040000000000000E-005   -2.094392757814564E-007
  1.042000000000000E-005   -2.434915565209500E-007
  1.044000000000000E-005   -1.561015170996834E-007
  1.046000000000000E-005    7.667348298279109E-008
  1.048000000000000E-005    4.089784921928168E-007
  1.050000000000000E-005    7.096439820903130E-007
  1.052000000000000E-005    7.865066177495183E-007
  1.054000000000000E-005    4.600138408642456E-007