 -1.200000000000000E-006    0.000000000000000E+000
 -1.180000000000000E-006    0.000000000000000E+000
 -1.160000000000000E-006    0.000000000000000E+000
 -1.140000000000000E-006    0.000000000000000E+000
 -1.120000000000000E-006    1.502977659835136E-022
 -1.100000000000000E-006    4.158756781424826E-008
 -1.080000000000000E-006   -9.353634019431522E-007
 -1.060000000000000E-006    9.939841045379075E-006
 -1.040000000000000E-006   -6.258989631964979E-005
 -1.020000000000000E-006    2.459819917524439E-004
 -1.000000000000000E-006   -5.572515396104208E-004
 -9.799999999999999E-007    3.428294687053087E-004
 -9.599999999999999E-007    1.887345027292506E-003
 -9.399999999999999E-007   -5.462932812826965E-003
 -9.199999999999999E-007    2.666945114038392E-003
 -9.000000000000000E-007    1.304285530811887E-002
 -8.799999999999999E-007   -2.191233291698948E-002
 -8.599999999999999E-007   -7.795915552194131E-003
 -8.400000000000000E-007    4.148241944272951E-002
 -8.200000000000000E-007   -1.017389262566747E-002
 -8.000000000000000E-007   -1.314996842713521E-002
 -7.799999999999999E-007   -2.999438819677115E-002
 -7.599999999999999E-007   -0.101277711861095     
 -7.399999999999999E-007    0.248628254779840     
 -7.199999999999999E-007    0.302378293487474     
 -7.000000000000000E-007   -0.630162549568936     
 -6.799999999999999E-007   -0.665111823681034     
 -6.599999999999999E-007    0.759017174791155     
 -6.399999999999999E-007     1.40411834937650     
 -6.199999999999999E-007    0.285800548193445     
 -6.000000000000000E-007    -2.15323451833845     
 -5.800000000000000E-007    -3.31960004300083     
 -5.599999999999999E-007    0.109177664205881     
 -5.399999999999999E-007     6.05307419267388     
 -5.199999999999999E-007     9.31770345004631     
 -5.000000000000000E-007     2.36753747129589     
 -4.800000000000000E-007    -19.4839140850687     
 -4.599999999999999E-007    -33.6423981872427     
 -4.399999999999999E-007    -5.68004627303710     
 -4.199999999999999E-007     53.1168290964348     
 -4.000000000000000E-007     84.8595223183750     
 -3.800000000000000E-007     38.3173682319662     
 -3.599999999999999E-007    -81.7866301323526     
 -3.399999999999999E-007    -190.410706020032     
 -3.199999999999999E-007    -172.111902238115     
 -2.999999999999999E-007     19.2568087810835     
 -2.800000000000000E-007     287.222316406513     
 -2.599999999999999E-007     395.378593859547     
 -2.399999999999998E-007     153.030284722126     
 -2.200000000000000E-007    -349.267395646375     
 -2.000000000000000E-007    -802.019650070318     
 -1.800000000000000E-007    -926.155837972470     
 -1.600000000000000E-007    -588.751952049736     
 -1.399999999999999E-007     188.097794631199     
 -1.199999999999999E-007     1287.58725138979     
 -9.999999999999989E-008     2597.09243064001     
 -7.999999999999987E-008     4005.77367663019     
 -5.999999999999985E-008     5357.21012427224     
 -3.999999999999983E-008     6471.93975831682     
 -2.000000000000002E-008     7416.87872333340     
  0.000000000000000E+000     9027.58250249161     
  2.000000000000002E-008     12820.1350022960     
  4.000000000000004E-008     19881.4564830398     
  6.000000000000006E-008     29984.9130833626     
  8.000000000000008E-008     41896.7338230357     
  1.000000000000001E-007     54556.1450340946     
  1.200000000000001E-007     68477.5754284649     
  1.400000000000001E-007     86305.9252650552     
  1.600000000000002E-007     111563.882362277     
  1.800000000000002E-007     146027.032516860     
  2.000000000000000E-007     187767.631061396     
  2.200000000000000E-007     232389.359490791     
  2.400000000000000E-007     276904.868402140     
  2.600000000000001E-007     321864.571363743     
  2.800000000000001E-007     369530.666569494     
  3.000000000000001E-007     420423.245810393     
  3.200000000000001E-007     470704.075686348     
  3.400000000000001E-007     511827.943188905     
  3.600000000000002E-007     533422.948718404     
  3.800000000000002E-007     527802.739341770     
  4.000000000000000E-007     491931.614908448     
  4.200000000000000E-007     423941.026285163     
  4.400000000000000E-007     317528.879202914     
  4.600000000000000E-007     161858.019830377     
  4.800000000000001E-007    -52143.8675266728     
  5.000000000000001E-007    -326367.473899124     
  5.200000000000001E-007    -654710.416355522     
  5.400000000000001E-007    -1024750.78602535     
  5.600000000000001E-007    -1420561.02569262     
  5.800000000000002E-007    -1825456.81073685     
  6.000000000000002E-007    -2221576.97995819     
  6.200000000000000E-007    -2585216.09913501     
  6.400000000000000E-007    -2883139.23204848     
  6.600000000000000E-007    -3077152.93338089     
  6.800000000000001E-007    -3134112.77600730     
  7.000000000000001E-007    -3030387.16678321     
  7.200000000000003E-007    -2749735.21072744     
  7.400000000000001E-007    -2283371.68151331     
  7.599999999999999E-007    -1634104.90727227     
  7.800000000000002E-007    -819713.821130225     
  8.000000000000000E-007     125905.124531620     
  8.200000000000002E-007     1152705.91805562     
  8.400000000000000E-007     2197079.56660163     
  8.600000000000002E-007     3189636.82569193     
  8.800000000000000E-007     4063912.41879290     
  9.000000000000003E-007     4757851.06446184     
  9.200000000000001E-007     5212354.52800786     
  9.399999999999999E-007     5378782.11666098     
  9.600000000000001E-007     5232628.83823317     
  9.799999999999999E-007     4780632.80697704     
  1.000000000000000E-006     4058446.40311843     
  1.020000000000000E-006     3124655.17472295     
  1.040000000000000E-006     2054727.11534210     
  1.060000000000000E-006     934420.022629434     
  1.080000000000000E-006    -146722.090286823     
  1.100000000000000E-006    -1099314.40370588     
  1.120000000000000E-006    -1840044.96029758     
  1.140000000000000E-006    -2306202.04399422     
  1.160000000000000E-006    -2470583.53521177     
  1.180000000000000E-006    -2344000.13985801     
  1.200000000000000E-006    -1968663.35934330     
  1.220000000000000E-006    -1411956.37266850     
  1.240000000000000E-006    -761305.362007915     
  1.260000000000000E-006    -116626.706376187     
  1.280000000000000E-006     420063.949061691     
  1.300000000000000E-006     755492.331510616     
  1.320000000000000E-006     816843.009378118     
  1.340000000000000E-006     565660.665731019     
  1.360000000000000E-006     6196.73203290557     
  1.380000000000000E-006    -818445.234106655     
  1.400000000000000E-006    -1833364.13453320     
  1.420000000000000E-006    -2934853.52459041     
  1.440000000000000E-006    -3996919.44992580     
  1.460000000000000E-006    -4886334.08582558     
  1.480000000000000E-006    -5479959.62860078     
  1.500000000000000E-006    -5677880.23555555     
  1.520000000000000E-006    -5413323.52570815     
  1.540000000000000E-006    -4662883.49950150     
  1.560000000000000E-006    -3452640.83303094     
  1.580000000000000E-006    -1854578.83824879     
  1.600000000000000E-006     20069.4848412810     
  1.620000000000000E-006     2025685.98284926     
  1.640000000000000E-006     3993824.69603419     
  1.660000000000000E-006     5753629.25459621     
  1.680000000000000E-006     7150376.09300564     
  1.700000000000000E-006     8056485.31922916     
  1.720000000000000E-006     8379559.44911380     
  1.740000000000000E-006     8072478.43969932     
  1.760000000000000E-006     7142309.56376344     
  1.780000000000000E-006     5650808.98874608     
  1.800000000000000E-006     3708116.50256331     
  1.820000000000000E-006     1464303.82896082     
  1.840000000000000E-006    -904240.160815258     
  1.860000000000000E-006    -3212715.81500035     
  1.880000000000000E-006    -5282563.84239463     
  1.900000000000000E-006    -6952611.82062121     
  1.920000000000000E-006    -8091064.03219870     
  1.940000000000000E-006    -8607783.11982447     
  1.960000000000000E-006    -8463334.81305919     
  1.980000000000000E-006    -7671882.63997432     
  2.000000000000000E-006    -6298519.73383804     
  2.020000000000000E-006    -4452945.79608452     
  2.040000000000000E-006    -2278621.65013024     
  2.060000000000000E-006     60040.4257910930     
  2.080000000000000E-006     2387726.18742202     
  2.100000000000000E-006     4529006.95185366     
  2.120000000000000E-006     6323632.51767770     
  2.140000000000000E-006     7641039.00006377     
  2.160000000000000E-006     8389644.67945540     
  2.180000000000000E-006     8522065.04730893     
  2.200000000000000E-006     8037308.27675716     
  2.220000000000000E-006     6979285.27100904     
  2.240000000000000E-006     5431114.06270768     
  2.260000000000000E-006     3507877.19250844     
  2.280000000000000E-006     1350584.35006876     
  2.300000000000000E-006    -882444.502233236     
  2.320000000000000E-006    -3029687.69122504     
  2.340000000000000E-006    -4940514.40348894     
  2.360000000000000E-006    -6485064.95202303     
  2.380000000000000E-006    -7561873.51921708     
  2.400000000000000E-006    -8104090.95514230     
  2.420000000000000E-006    -8083090.65153309     
  2.440000000000000E-006    -7509250.51479869     
  2.460000000000000E-006    -6430578.80222538     
  2.480000000000000E-006    -4929218.96212484     
  2.500000000000000E-006    -3114718.91544462     
  2.520000000000000E-006    -1114713.80924268     
  2.540000000000000E-006     933696.145466386     
  2.560000000000000E-006     2891491.37165334     
  2.580000000000000E-006     4627095.92571902     
  2.600000000000000E-006     6027214.46417636     
  2.620000000000000E-006     7005408.80202323     
  2.640000000000001E-006     7506379.64727135     
  2.660000000000000E-006     7506724.55205438     
  2.680000000000000E-006     7014205.33561849     
  2.700000000000000E-006     6067331.97614500     
  2.720000000000000E-006     4734695.01398846     
  2.740000000000000E-006     3111304.21844859     
  2.760000000000000E-006     1310693.46596943     
  2.780000000000000E-006    -545230.140149903     
  2.800000000000000E-006    -2335839.79435793     
  2.820000000000001E-006    -3948985.03481629     
  2.840000000000000E-006    -5285433.82360781     
  2.860000000000000E-006    -6262714.39071754     
  2.880000000000000E-006    -6820865.42386265     
  2.900000000000000E-006    -6929691.38605805     
  2.920000000000000E-006    -6592835.24961107     
  2.940000000000000E-006    -5844069.39625962     
  2.960000000000000E-006    -4739158.47176309     
  2.980000000000000E-006    -3351238.63982258     
  3.000000000000000E-006    -1769900.99903548     
  3.020000000000000E-006    -98199.5952701112     
  3.040000000000000E-006     1554254.82188738     
  3.060000000000000E-006     3080583.41087698     
  3.080000000000000E-006     4386173.96629542     
  3.100000000000000E-006     5395412.49698530     
  3.120000000000000E-006     6053765.49345833     
  3.140000000000000E-006     6326705.46590147     
  3.160000000000000E-006     6200384.43841936     
  3.180000000000000E-006     5686373.10721829     
  3.200000000000000E-006     4824072.44867343     
  3.220000000000000E-006     3675687.73687669     
  3.240000000000000E-006     2318693.34067825     
  3.260000000000001E-006     840274.304301086     
  3.280000000000000E-006    -667599.287806097     
  3.300000000000000E-006    -2112720.82607269     
  3.320000000000000E-006    -3406536.26402333     
  3.340000000000000E-006    -4469427.24512201     
  3.360000000000000E-006    -5238325.04541895     
  3.380000000000000E-006    -5672994.27841240     
  3.400000000000000E-006    -5755657.45098125     
  3.420000000000000E-006    -5486626.76208628     
  3.440000000000001E-006    -4884673.88835961     
  3.460000000000000E-006    -3990866.46600944     
  3.480000000000000E-006    -2866797.19928070     
  3.500000000000000E-006    -1587136.91932724     
  3.520000000000000E-006    -232803.859511079     
  3.540000000000000E-006     1113872.80842994     
  3.560000000000000E-006     2373564.56817649     
  3.580000000000000E-006     3473522.85502449     
  3.600000000000000E-006     4349481.76953062     
  3.620000000000000E-006     4948766.42551900     
  3.640000000000000E-006     5237164.45407364     
  3.660000000000000E-006     5203897.19979340     
  3.680000000000000E-006     4858970.90009470     
  3.700000000000001E-006     4228140.61483057     
  3.720000000000000E-006     3351793.78570900     
  3.740000000000000E-006     2285181.77294478     
  3.760000000000000E-006     1095695.74661043     
  3.780000000000000E-006    -142370.968592215     
  3.800000000000000E-006    -1353195.75120689     
  3.820000000000001E-006    -2464588.54423721     
  3.840000000000001E-006    -3412868.87281958     
  3.860000000000000E-006    -4145272.99862150     
  3.880000000000000E-006    -4620529.89573413     
  3.900000000000000E-006    -4811809.13045771     
  3.920000000000000E-006    -4711163.08891523     
  3.940000000000000E-006    -4330439.30763745     
  3.959999999999999E-006    -3698285.82507667     
  3.980000000000001E-006    -2856564.07557566     
  4.000000000000001E-006    -1857782.78734646     
  4.020000000000000E-006    -762574.261977624     
  4.040000000000000E-006     363537.748661934     
  4.060000000000000E-006     1453346.48597746     
  4.080000000000000E-006     2441887.20111085     
  4.100000000000000E-006     3271828.34365936     
  4.120000000000000E-006     3897275.16130992     
  4.139999999999999E-006     4284664.93191680     
  4.160000000000001E-006     4413868.95055709     
  4.180000000000001E-006     4280194.89250624     
  4.200000000000000E-006     3895206.56642859     
  4.220000000000000E-006     3285588.11247390     
  4.240000000000000E-006     2490635.29844831     
  4.260000000000000E-006     1559641.48129571     
  4.280000000000000E-006     549140.004091040     
  4.299999999999999E-006    -480778.306763167     
  4.320000000000001E-006    -1469692.45850027     
  4.340000000000001E-006    -2359608.86106851     
  4.360000000000001E-006    -3098886.28383676     
  4.380000000000000E-006    -3645815.69926301     
  4.400000000000000E-006    -3970835.72006099     
  4.420000000000000E-006    -4058496.66500239     
  4.440000000000000E-006    -3907998.79475002     
  4.460000000000000E-006    -3531828.82000502     
  4.479999999999999E-006    -2954478.45941531     
  4.500000000000001E-006    -2211472.76109437     
  4.520000000000001E-006    -1348001.47751967     
  4.540000000000001E-006    -416483.765964608     
  4.560000000000000E-006     527268.135855770     
  4.580000000000000E-006     1427731.51262194     
  4.600000000000000E-006     2233078.94274032     
  4.620000000000000E-006     2898875.65257531     
  4.640000000000000E-006     3389496.25588266     
  4.659999999999999E-006     3677874.49391956     
  4.680000000000001E-006     3747882.73142057     
  4.700000000000001E-006     3597772.68866596     
  4.720000000000001E-006     3240202.21914840     
  4.740000000000000E-006     2699430.73716624     
  4.760000000000000E-006     2008699.85377407     
  4.780000000000000E-006     1208945.09933073     
  4.800000000000000E-006     347327.472028873     
  4.820000000000000E-006    -525476.116357284     
  4.839999999999999E-006    -1357698.32780781     
  4.860000000000001E-006    -2099604.04868042     
  4.880000000000001E-006    -2709110.56198247     
  4.900000000000001E-006    -3155209.89421051     
  4.920000000000000E-006    -3415900.93934133     
  4.940000000000000E-006    -3476545.69203740     
  4.960000000000000E-006    -3333097.93296591     
  4.980000000000000E-006    -2995977.11461195     
  5.000000000000000E-006    -2489373.89131269     
  5.019999999999999E-006    -1846803.89686026     
  5.040000000000001E-006    -1107216.36896143     
  5.060000000000001E-006    -312865.770676915     
  5.080000000000000E-006     492308.137400099     
  5.100000000000000E-006     1263065.76635870     
  5.120000000000000E-006     1953288.36062063     
  5.140000000000000E-006     2520671.44914800     
  5.160000000000000E-006     2933663.44933822     
  5.180000000000000E-006     3173506.13912201     
  5.199999999999999E-006     3230927.23206136     
  5.220000000000001E-006     3103700.22459980     
  5.240000000000001E-006     2798106.98631305     
  5.260000000000000E-006     2331608.08827970     
  5.280000000000000E-006     1733393.39134594     
  5.300000000000000E-006     1042067.04937607     
  5.320000000000000E-006     300879.127229618     
  5.340000000000000E-006    -447598.305189188     
  5.360000000000000E-006    -1163438.04885112     
  5.380000000000001E-006    -1807566.19776495     
  5.400000000000001E-006    -2341829.10076307     
  5.420000000000001E-006    -2733873.69477066     
  5.440000000000000E-006    -2962186.31265018     
  5.460000000000000E-006    -3017079.28961902     
  5.480000000000000E-006    -2899162.66559972     
  5.500000000000000E-006    -2617708.73593434     
  5.520000000000000E-006    -2189451.77170660     
  5.539999999999999E-006    -1638700.22605952     
  5.560000000000001E-006    -998384.563976905     
  5.580000000000001E-006    -308501.672279962     
  5.600000000000001E-006     389450.656530943     
  5.620000000000000E-006     1057173.39189130     
  5.640000000000000E-006     1659258.90785798     
  5.660000000000000E-006     2161815.42007173     
  5.680000000000000E-006     2535255.66257790     
  5.700000000000000E-006     2758671.66838979     
  5.719999999999999E-006     2821190.29812230     
  5.740000000000001E-006     2721632.42792731     
  5.760000000000001E-006     2468392.69629994     
  5.780000000000001E-006     2077798.18644599     
  5.800000000000000E-006     1571718.20737380     
  5.820000000000000E-006     978116.711813420     
  5.840000000000000E-006     332919.116857355     
  5.860000000000000E-006    -322896.403317545     
  5.880000000000000E-006    -950516.746730655     
  5.899999999999999E-006    -1516987.60324389     
  5.920000000000001E-006    -1993193.89788883     
  5.940000000000001E-006    -2352725.76175192     
  5.960000000000001E-006    -2574640.61014645     
  5.980000000000000E-006    -2646192.89243632     
  6.000000000000000E-006    -2564018.62330744     
  6.020000000000000E-006    -2335226.85304450     
  6.040000000000000E-006    -1976823.50620104     
  6.060000000000000E-006    -1511901.88520151     
  6.079999999999999E-006    -966353.663767573     
  6.100000000000001E-006    -369745.449374695     
  6.120000000000001E-006     243324.350202147     
  6.140000000000001E-006     836359.743623162     
  6.160000000000000E-006     1375658.65788597     
  6.180000000000000E-006     1831748.36500822     
  6.200000000000000E-006     2179585.56892496     
  6.220000000000000E-006     2400402.14288190     
  6.240000000000000E-006     2483100.42432695     
  6.260000000000001E-006     2423882.79938075     
  6.280000000000001E-006     2226494.87375484     
  6.300000000000001E-006     1903561.89043918     
  6.320000000000000E-006     1475800.21328372     
  6.340000000000000E-006     968588.188163913     
  6.360000000000000E-006     410198.016202879     
  6.380000000000000E-006    -167454.358995370     
  6.400000000000000E-006    -730155.464310592     
  6.420000000000000E-006    -1245377.38723269     
  6.439999999999999E-006    -1684652.65819702     
  6.459999999999999E-006    -2023951.21309525     
  6.480000000000001E-006    -2244800.62305105     
  6.500000000000000E-006    -2336044.08840377     
  6.520000000000000E-006    -2294213.48492882     
  6.540000000000000E-006    -2122700.04846621     
  6.560000000000000E-006    -1831856.14131230     
  6.580000000000000E-006    -1439572.32106841     
  6.599999999999999E-006    -969750.246825827     
  6.619999999999999E-006    -449727.898527023     
  6.639999999999999E-006     90867.3056126078     
  6.660000000000001E-006     621284.805560708     
  6.680000000000000E-006     1111949.51549760     
  6.700000000000000E-006     1536026.20622398     
  6.720000000000000E-006     1869973.05033002     
  6.740000000000000E-006     2094697.29421439     
  6.760000000000000E-006     2197767.77998833     
  6.779999999999999E-006     2175180.45218343     
  6.799999999999999E-006     2030746.69713080     
  6.819999999999999E-006     1774071.16744810     
  6.840000000000001E-006     1419599.33490570     
  6.860000000000000E-006     986554.569251362     
  6.880000000000000E-006     499047.251194116     
  6.900000000000000E-006    -13900.1597578089     
  6.920000000000000E-006    -520459.055114630     
  6.940000000000000E-006    -990441.163257024     
  6.959999999999999E-006    -1398739.83704270     
  6.979999999999999E-006    -1725694.72675750     
  6.999999999999999E-006    -1955284.64433597     
  7.020000000000001E-006    -2074033.78481819     
  7.040000000000000E-006    -2073185.96708156     
  7.060000000000000E-006    -1952328.98383509     
  7.080000000000000E-006    -1720673.38407057     
  7.100000000000000E-006    -1395034.04272351     
  7.120000000000000E-006    -995987.090774928     
  7.139999999999999E-006    -545206.716462624     
  7.159999999999999E-006    -66007.3399217366     
  7.179999999999999E-006     415304.273997641     
  7.200000000000001E-006     870329.048457018     
  7.220000000000000E-006     1271623.88537716     
  7.240000000000000E-006     1596397.15865919     
  7.260000000000000E-006     1828451.63836173     
  7.280000000000000E-006     1957035.02775401     
  7.300000000000000E-006     1975265.62514536     
  7.319999999999999E-006     1880967.03215703     
  7.339999999999999E-006     1679071.37537152     
  7.359999999999999E-006     1382745.51891877     
  7.380000000000000E-006     1011364.45619808     
  7.400000000000000E-006     587012.709024148     
  7.420000000000000E-006     132874.625384281     
  7.440000000000000E-006    -326466.374291827     
  7.460000000000000E-006    -764960.564022078     
  7.480000000000000E-006    -1156386.60522768     
  7.499999999999999E-006    -1477445.44482387     
  7.519999999999999E-006    -1711065.30518358     
  7.540000000000001E-006    -1846874.42516639     
  7.560000000000000E-006    -1879119.82045002     
  7.580000000000000E-006    -1805538.04223386     
  7.600000000000000E-006    -1629033.77062370     
  7.620000000000000E-006    -1360133.54443834     
  7.640000000000000E-006    -1016769.75313399     
  7.660000000000000E-006    -621065.518565590     
  7.679999999999999E-006    -195916.343066922     
  7.699999999999999E-006     236629.756652439     
  7.720000000000001E-006     654800.242843572     
  7.740000000000000E-006     1035483.69024400     
  7.760000000000000E-006     1354903.27700716     
  7.780000000000000E-006     1592984.89185147     
  7.800000000000000E-006     1737524.35863753     
  7.820000000000000E-006     1783933.54428273     
  7.839999999999999E-006     1731972.51294347     
  7.859999999999999E-006     1584218.92788718     
  7.879999999999999E-006     1347548.21440769     
  7.900000000000001E-006     1034772.32122767     
  7.920000000000000E-006     664625.698801423     
  7.940000000000000E-006     260247.344833637     
  7.960000000000000E-006    -153895.200833626     
  7.980000000000000E-006    -555178.985273245     
  8.000000000000000E-006    -923238.920283299     
  8.019999999999999E-006    -1238236.49432217     
  8.039999999999999E-006    -1481193.97737754     
  8.059999999999999E-006    -1637575.78748047     
  8.080000000000001E-006    -1699912.70977183     
  8.100000000000000E-006    -1666735.69381255     
  8.120000000000000E-006    -1540827.74284574     
  8.140000000000000E-006    -1329360.55201858     
  8.160000000000000E-006    -1044220.78598168     
  8.180000000000000E-006    -701561.685070984     
  8.199999999999999E-006    -321543.879629435     
  8.219999999999999E-006     72766.9601857267     
  8.239999999999999E-006     458559.044332340     
  8.260000000000001E-006     815933.481572724     
  8.280000000000000E-006     1127052.59043403     
  8.300000000000000E-006     1374208.26859285     
  8.320000000000000E-006     1541577.54180455     
  8.340000000000000E-006     1619290.79705688     
  8.360000000000000E-006     1604541.29059869     
  8.379999999999999E-006     1499878.28705356     
  8.399999999999999E-006     1312311.16241551     
  8.419999999999999E-006     1053046.54573397     
  8.440000000000001E-006     736381.199872015     
  8.460000000000000E-006     379201.218409283     
  8.480000000000000E-006     1823.29689039624     
  8.500000000000000E-006    -372590.003093068     
  8.520000000000000E-006    -721546.171867364     
  8.540000000000000E-006    -1026238.82171803     
  8.559999999999999E-006    -1271219.70658268     
  8.579999999999999E-006    -1443546.11830800     
  8.600000000000001E-006    -1534013.39156633     
  8.620000000000000E-006    -1538168.38196490     
  8.640000000000000E-006    -1455834.49418894     
  8.660000000000000E-006    -1291440.79285145     
  8.680000000000000E-006    -1055213.28726375     
  8.700000000000000E-006    -762349.096005458     
  8.720000000000000E-006    -430212.985999070     
  8.739999999999999E-006    -76798.0151349467     
  8.759999999999999E-006     278909.398188092     
  8.780000000000001E-006     617280.025581848     
  8.800000000000000E-006     919554.319054496     
  8.820000000000000E-006     1168622.12850401     
  8.840000000000000E-006     1349762.18918980     
  8.860000000000000E-006     1452936.24074208     
  8.880000000000000E-006     1474345.63948059     
  8.899999999999999E-006     1414759.25526685     
  8.919999999999999E-006     1277313.94590895     
  8.939999999999999E-006     1068273.64506996     
  8.960000000000001E-006     798961.709631140     
  8.980000000000000E-006     485478.478241332     
  9.000000000000000E-006     146799.771517310     
  9.020000000000000E-006    -196877.288200738     
  9.040000000000000E-006    -525951.319885414     
  9.060000000000000E-006    -823260.817879127     
  9.079999999999999E-006    -1073958.63300005     
  9.099999999999999E-006    -1264033.57231342     
  9.119999999999999E-006    -1381258.58773872     
  9.140000000000001E-006    -1418756.45364019     
  9.160000000000000E-006    -1376347.50066552     
  9.180000000000000E-006    -1258109.51910026     
  9.200000000000000E-006    -1070553.05387518     
  9.220000000000000E-006    -823581.726382594     
  9.240000000000000E-006    -531291.348671631     
  9.259999999999999E-006    -210872.074018178     
  9.279999999999999E-006     118902.381038793     
  9.299999999999999E-006     438980.849340271     
  9.320000000000001E-006     731883.013398943     
  9.340000000000000E-006     982985.916931213     
  9.360000000000000E-006     1179454.90199748     
  9.380000000000000E-006     1309047.89602987     
  9.400000000000000E-006     1362473.79430299     
  9.420000000000000E-006     1337133.39412662     
  9.439999999999999E-006     1237123.63304695     
  9.459999999999999E-006     1070044.85930388     
  9.479999999999999E-006     845079.824672248     
  9.500000000000001E-006     573609.031686108     
  9.520000000000000E-006     270206.943675803     
  9.540000000000000E-006    -47504.5225635406     
  9.560000000000000E-006    -360091.026995481     
  9.580000000000000E-006    -648682.350799083     
  9.600000000000000E-006    -897813.586994851     
  9.619999999999999E-006    -1095979.04435231     
  9.639999999999999E-006    -1233382.69761214     
  9.660000000000001E-006    -1301068.98554748     
  9.680000000000000E-006    -1293692.86195124     
  9.700000000000000E-006    -1212409.92302081     
  9.720000000000000E-006    -1064334.48992785     
  9.740000000000000E-006    -859640.877102121     
  9.760000000000000E-006    -609578.434638076     
  9.780000000000000E-006    -326562.624874725     
  9.799999999999999E-006    -25154.8766773942     
  9.819999999999999E-006     277346.070739074     
  9.840000000000001E-006     562010.897915674     
  9.860000000000000E-006     811629.395265318     
  9.880000000000000E-006     1013540.35890858     
  9.900000000000000E-006     1158957.99529042     
  9.920000000000000E-006     1240601.39665548     
  9.940000000000000E-006     1252540.04307258     
  9.960000000000000E-006     1192666.21835636     
  9.979999999999999E-006     1064737.58346463     
  9.999999999999999E-006     877813.754661643     
  1.002000000000000E-005     644091.270386445     
  1.004000000000000E-005     376895.240196841     
  1.006000000000000E-005     89745.2027723613     
  1.008000000000000E-005    -202729.188812994     
  1.010000000000000E-005    -483414.767208289     
  1.012000000000000E-005    -734176.730960104     
  1.014000000000000E-005    -939861.511308421     
  1.016000000000000E-005    -1090650.18146082     
  1.018000000000000E-005    -1180759.86829808     
  1.020000000000000E-005    -1206109.77598873     
  1.022000000000000E-005    -1164292.04847469     
  1.024000000000000E-005    -1056459.08568395     
  1.026000000000000E-005    -888540.848127443     
  1.028000000000000E-005    -671224.096618974     
  1.030000000000000E-005    -418800.984477173     
  1.032000000000000E-005    -146485.881546336     
  1.034000000000000E-005     131716.865291601     
  1.036000000000000E-005     402251.665565494     
  1.038000000000000E-005     650315.715013629     
  1.040000000000000E-005     860628.513034891     
  1.042000000000000E-005     1020491.78556897     
  1.044000000000000E-005     1121769.93479824     
  1.046000000000000E-005     1160112.46584770     
  1.048000000000000E-005     1133889.06371807     
  1.050000000000000E-005     1044617.30832158     
  1.052000000000000E-005     897251.784664595     
  1.054000000000000E-005     699889.085330438     