 -1.200000000000000E-006    0.000000000000000E+000
 -1.180000000000000E-006    0.000000000000000E+000
 -1.160000000000000E-006    0.000000000000000E+000
 -1.140000000000000E-006    0.000000000000000E+000
 -1.120000000000000E-006    0.000000000000000E+000
 -1.100000000000000E-006    0.000000000000000E+000
 -1.080000000000000E-006    0.000000000000000E+000
 -1.060000000000000E-006    0.000000000000000E+000
 -1.040000000000000E-006    0.000000000000000E+000
 -1.020000000000000E-006    0.000000000000000E+000
 -1.000000000000000E-006    0.000000000000000E+000
 -9.799999999999999E-007    0.000000000000000E+000
 -9.599999999999999E-007    0.000000000000000E+000
 -9.399999999999999E-007    0.000000000000000E+000
 -9.199999999999999E-007    0.000000000000000E+000
 -9.000000000000000E-007    0.000000000000000E+000
 -8.799999999999999E-007    0.000000000000000E+000
 -8.599999999999999E-007    0.000000000000000E+000
 -8.400000000000000E-007    0.000000000000000E+000
 -8.200000000000000E-007    0.000000000000000E+000
 -8.000000000000000E-007    0.000000000000000E+000
 -7.799999999999999E-007    0.000000000000000E+000
 -7.599999999999999E-007    0.000000000000000E+000
 -7.399999999999999E-007    0.000000000000000E+000
 -7.199999999999999E-007    0.000000000000000E+000
 -7.000000000000000E-007    0.000000000000000E+000
 -6.799999999999999E-007    0.000000000000000E+000
 -6.599999999999999E-007    6.077277011073251E-037
 -6.399999999999999E-007   -1.062210686556450E-035
 -6.199999999999999E-007    1.249501030127589E-034
 -6.000000000000000E-007   -1.149686773906674E-033
 -5.800000000000000E-007    8.754280132263820E-033
 -5.599999999999999E-007   -5.622525566671953E-032
 -5.399999999999999E-007    3.081276394823479E-031
 -5.199999999999999E-007   -1.452053305394230E-030
 -5.000000000000000E-007    5.901708616498837E-030
 -4.800000000000000E-007   -2.060542530340056E-029
 -4.599999999999999E-007    6.080999923195174E-029
 -4.399999999999999E-007   -1.453591849408094E-028
 -4.199999999999999E-007    2.479169834006934E-028
 -4.000000000000000E-007   -1.279264173241888E-028
 -3.800000000000000E-007   -1.007549216256654E-027
 -3.599999999999999E-007    4.703660898890714E-027
 -3.399999999999999E-007   -1.197460550253058E-026
 -3.199999999999999E-007    1.780824286475892E-026
 -2.999999999999999E-007    1.538036797082097E-028
 -2.800000000000000E-007   -8.944288727586450E-026
 -2.599999999999999E-007    2.886414144161471E-025
 -2.399999999999998E-007   -4.815560213880148E-025
 -2.200000000000000E-007    1.378962005342315E-025
 -2.000000000000000E-007    1.709084654188645E-024
 -1.800000000000000E-007   -5.352923339182150E-024
 -1.600000000000000E-007    7.568682197901965E-024
 -1.399999999999999E-007    9.291743628581005E-025
 -1.199999999999999E-007   -3.123839639055640E-023
 -9.999999999999989E-008    7.648814089475391E-023
 -7.999999999999987E-008   -7.593218904093170E-023
 -5.999999999999985E-008   -9.740186453836454E-023
 -3.999999999999983E-008    5.067255397368836E-022
 -2.000000000000002E-008   -8.045107254216008E-022
  0.000000000000000E+000    5.568816799208504E-023
  2.000000000000002E-008    2.410854192601172E-021
  4.000000000000004E-008   -5.164937247663502E-021
  6.000000000000006E-008    3.717817491922056E-021
  8.000000000000008E-008    7.630871407570591E-021
  1.000000000000001E-007   -2.832048468910649E-020
  1.200000000000001E-007    3.500764575125181E-020
  1.400000000000001E-007    2.039253595396168E-020
  1.600000000000002E-007   -1.405204566029852E-019
  1.800000000000002E-007    1.850512436640111E-019
  2.000000000000000E-007    4.063116426190586E-020
  2.200000000000000E-007   -5.103802413722550E-019
  2.400000000000000E-007    8.432918659574041E-019
  2.600000000000001E-007   -2.866488913047208E-019
  2.800000000000001E-007   -1.854327260377793E-018
  3.000000000000001E-007    4.045475176560211E-018
  3.200000000000001E-007   -1.580319211064477E-018
  3.400000000000001E-007   -7.058822592084794E-018
  3.600000000000002E-007    1.412479489154068E-017
  3.800000000000002E-007   -7.852792346275789E-018
  4.000000000000000E-007   -2.070821059931442E-017
  4.200000000000000E-007    5.584729602573014E-017
  4.400000000000000E-007   -2.728967009122118E-017
  4.600000000000000E-007   -8.763250303591319E-017
  4.800000000000001E-007    1.395804382993809E-016
  5.000000000000001E-007   -5.494242975862807E-017
  5.200000000000001E-007   -8.964335277729197E-017
  5.400000000000001E-007    4.825477949758170E-016
  5.600000000000001E-007   -6.384510791743261E-016
  5.800000000000002E-007   -8.832834629282868E-016
  6.000000000000002E-007    2.132807115933187E-015
  6.200000000000000E-007    5.501238087470474E-016
  6.400000000000000E-007   -2.454037279865270E-015
  6.600000000000000E-007    3.089213994813401E-016
  6.800000000000001E-007   -2.845285543277676E-015
  7.000000000000001E-007    1.055341609719366E-015
  7.200000000000003E-007    1.614374708772230E-014
  7.400000000000001E-007   -7.771180536370456E-015
  7.599999999999999E-007   -2.765774911254180E-014
  7.800000000000002E-007    1.566626257859999E-014
  8.000000000000000E-007    1.215419212312593E-014
  8.200000000000002E-007   -1.106095116438298E-014
  8.400000000000000E-007    4.220784354230645E-014
  8.600000000000002E-007   -1.076551528950667E-014
  8.800000000000000E-007   -6.728955211858143E-014
  9.000000000000003E-007    3.260563967537557E-014
  9.200000000000001E-007   -1.026693731151037E-013
  9.399999999999999E-007   -8.269607715536441E-014
  9.600000000000001E-007    5.033562116953302E-013
  9.799999999999999E-007    3.169180964649551E-013
  1.000000000000000E-006   -5.625728779390160E-013
  1.020000000000000E-006   -6.937424928761957E-013
  1.040000000000000E-006   -7.704192292777496E-013
  1.060000000000000E-006    1.559837921997193E-013
  1.080000000000000E-006    2.837849156742823E-012
  1.100000000000000E-006    2.595980178730148E-012
  1.120000000000000E-006   -6.441805591276312E-013
  1.140000000000000E-006   -3.874078962406967E-012
  1.160000000000000E-006   -9.457668060586505E-012
  1.180000000000000E-006   -7.651698017861234E-012
  1.200000000000000E-006    1.162029413936915E-011
  1.220000000000000E-006    2.901223676085860E-011
  1.240000000000000E-006    2.629254142046767E-011
  1.260000000000000E-006   -5.284295883071592E-012
  1.280000000000000E-006   -7.250907011883196E-011
  1.300000000000000E-006   -1.126265578423820E-010
  1.320000000000000E-006   -3.595144427105299E-011
  1.340000000000000E-006    1.434000513116462E-010
  1.360000000000000E-006    3.227176882432981E-010
  1.380000000000000E-006    2.946642648833082E-010
  1.400000000000000E-006   -1.572013738179188E-010
  1.420000000000000E-006   -8.251937041896950E-010
  1.440000000000000E-006   -1.071491968987758E-009
  1.460000000000000E-006   -3.481234128724091E-010
  1.480000000000000E-006    1.401431440285056E-009
  1.500000000000000E-006    3.143293541105502E-009
  1.520000000000000E-006    2.817828701061345E-009
  1.540000000000000E-006   -8.296413167505090E-010
  1.560000000000000E-006   -6.574536335561284E-009
  1.580000000000000E-006   -1.028085251487865E-008
  1.600000000000000E-006   -6.176010728861250E-009
  1.620000000000000E-006    7.900332049448253E-009
  1.640000000000000E-006    2.515351335185832E-008
  1.660000000000000E-006    3.105648095010544E-008
  1.680000000000000E-006    1.077994084086423E-008
  1.700000000000000E-006   -3.720265124174951E-008
  1.720000000000000E-006   -8.732347808539865E-008
  1.740000000000000E-006   -9.204576978109319E-008
  1.760000000000000E-006   -1.143795572237863E-008
  1.780000000000000E-006    1.453620955911465E-007
  1.800000000000000E-006    2.886993685734562E-007
  1.820000000000000E-006    2.712661582763205E-007
  1.840000000000000E-006   -1.388680946989451E-008
  1.860000000000000E-006   -5.095142581373165E-007
  1.880000000000000E-006   -9.246775663335799E-007
  1.900000000000000E-006   -8.170807758543382E-007
  1.920000000000000E-006    1.157033743343476E-007
  1.940000000000000E-006    1.662861321310649E-006
  1.960000000000000E-006    2.916297109019228E-006
  1.980000000000000E-006    2.543966014989791E-006
  2.000000000000000E-006   -3.549204705140475E-007
  2.020000000000000E-006   -5.134861206422457E-006
  2.040000000000000E-006   -9.048131356895800E-006
  2.060000000000000E-006   -8.084251005654493E-006
  2.080000000000000E-006    5.095086686046960E-007
  2.100000000000000E-006    1.495095702504853E-005
  2.120000000000000E-006    2.724399081268050E-005
  2.140000000000000E-006    2.561027094074626E-005
  2.160000000000000E-006    1.699457823707458E-006
  2.180000000000000E-006   -4.017342758985324E-005
  2.200000000000000E-006   -7.815590003329217E-005
  2.220000000000000E-006   -7.923019203227398E-005
  2.240000000000000E-006   -1.852950215948333E-005
  2.260000000000000E-006    9.592932586165558E-005
  2.280000000000000E-006    2.093892346465622E-004
  2.300000000000000E-006    2.347451942102248E-004
  2.320000000000000E-006    9.997739094943917E-005
  2.340000000000000E-006   -1.892723457418059E-004
  2.360000000000000E-006   -5.105212003338695E-004
  2.380000000000000E-006   -6.502688764277071E-004
  2.400000000000000E-006   -4.095251679615440E-004
  2.420000000000000E-006    2.473639580582607E-004
  2.440000000000000E-006    1.085222081360703E-003
  2.460000000000000E-006    1.627576781673212E-003
  2.480000000000000E-006    1.366996044220521E-003
  2.500000000000000E-006    9.255775247134045E-005
  2.520000000000000E-006   -1.837953549984109E-003
  2.540000000000000E-006   -3.489043486690589E-003
  2.560000000000000E-006   -3.716946445807303E-003
  2.580000000000000E-006   -1.820455753202283E-003
  2.600000000000000E-006    1.853295811220514E-003
  2.620000000000000E-006    5.766079666758395E-003
  2.640000000000001E-006    7.765184418318359E-003
  2.660000000000000E-006    6.234187210362761E-003
  2.680000000000000E-006    1.226392451378304E-003
  2.700000000000000E-006   -5.198302920870783E-003
  2.720000000000000E-006   -9.912545719731939E-003
  2.740000000000000E-006   -1.065076960256609E-002
  2.760000000000000E-006   -7.781910973057266E-003
  2.780000000000000E-006   -4.426499282867896E-003
  2.800000000000000E-006   -4.077079759847176E-003
  2.820000000000001E-006   -6.552181656049171E-003
  2.840000000000000E-006   -5.057876520082799E-003
  2.860000000000000E-006    1.202190934918571E-002
  2.880000000000000E-006    5.258799829230666E-002
  2.900000000000000E-006    0.107901093602241     
  2.920000000000000E-006    0.143193839422958     
  2.940000000000000E-006    0.102919681496882     
  2.960000000000000E-006   -6.165353570098547E-002
  2.980000000000000E-006   -0.346650820490161     
  3.000000000000000E-006   -0.652843460080926     
  3.020000000000000E-006   -0.780293967633425     
  3.040000000000000E-006   -0.491601601763654     
  3.060000000000000E-006    0.352427326010109     
  3.080000000000000E-006     1.62821724921971     
  3.100000000000000E-006     2.84638197378131     
  3.120000000000000E-006     3.21566755009798     
  3.140000000000000E-006     1.93521099296174     
  3.160000000000000E-006    -1.33030031341259     
  3.180000000000000E-006    -5.97342376190690     
  3.200000000000000E-006    -10.2423186604584     
  3.220000000000000E-006    -11.5741822258912     
  3.240000000000000E-006    -7.54848274783121     
  3.260000000000001E-006     2.75675385920371     
  3.280000000000000E-006     17.5359243171210     
  3.300000000000000E-006     31.8413144909129     
  3.320000000000000E-006     38.5254864190708     
  3.340000000000000E-006     30.6023210337613     
  3.360000000000000E-006     4.40902539977171     
  3.380000000000000E-006    -37.6412949204234     
  3.400000000000000E-006    -86.1028233297415     
  3.420000000000000E-006    -126.273437307212     
  3.440000000000001E-006    -142.615232345593     
  3.460000000000000E-006    -124.471026417679     
  3.480000000000000E-006    -70.7794517697558     
  3.500000000000000E-006     8.64293650296852     
  3.520000000000000E-006     96.7518051644811     
  3.540000000000000E-006     177.552943444287     
  3.560000000000000E-006     246.654043823279     
  3.580000000000000E-006     320.329177319365     
  3.600000000000000E-006     439.329837988825     
  3.620000000000000E-006     665.411789681287     
  3.640000000000000E-006     1071.58421205917     
  3.660000000000000E-006     1730.36264844485     
  3.680000000000000E-006     2706.22281834450     
  3.700000000000001E-006     4057.83790114506     
  3.720000000000000E-006     5852.26007232501     
  3.740000000000000E-006     8187.87125965454     
  3.760000000000000E-006     11218.0118843203     
  3.780000000000000E-006     15164.5927102042     
  3.800000000000000E-006     20312.8976936962     
  3.820000000000001E-006     26984.6826631642     
  3.840000000000001E-006     35494.2935998386     
  3.860000000000000E-006     46098.7180581334     
  3.880000000000000E-006     58953.9090604460     
  3.900000000000000E-006     74085.6591581098     
  3.920000000000000E-006     91373.5588561518     
  3.940000000000000E-006     110538.265937099     
  3.959999999999999E-006     131117.147324298     
  3.980000000000001E-006     152418.295611314     
  4.000000000000001E-006     173453.211735420     
  4.020000000000000E-006     192864.505102582     
  4.040000000000000E-006     208874.439192680     
  4.060000000000000E-006     219281.723720426     
  4.080000000000000E-006     221524.249081201     
  4.100000000000000E-006     212807.498802494     
  4.120000000000000E-006     190285.401304612     
  4.139999999999999E-006     151277.795802231     
  4.160000000000001E-006     93511.6515277183     
  4.180000000000001E-006     15383.2398657331     
  4.200000000000000E-006    -83758.3236434481     
  4.220000000000000E-006    -203309.902918616     
  4.240000000000000E-006    -341124.616111889     
  4.260000000000000E-006    -493279.125857553     
  4.280000000000000E-006    -653956.205731687     
  4.299999999999999E-006    -815492.874979780     
  4.320000000000001E-006    -968622.045676434     
  4.340000000000001E-006    -1102903.83305374     
  4.360000000000001E-006    -1207319.77631190     
  4.380000000000000E-006    -1270991.88351492     
  4.400000000000000E-006    -1283975.44848246     
  4.420000000000000E-006    -1238090.01210279     
  4.440000000000000E-006    -1127732.13882401     
  4.460000000000000E-006    -950608.758471602     
  4.479999999999999E-006    -708327.014919179     
  4.500000000000001E-006    -406764.063044458     
  4.520000000000001E-006    -56141.0126338550     
  4.540000000000001E-006     329244.470761761     
  4.560000000000000E-006     731645.656272682     
  4.580000000000000E-006     1130838.18799651     
  4.600000000000000E-006     1505360.14362530     
  4.620000000000000E-006     1833925.12472762     
  4.640000000000000E-006     2096898.83976763     
  4.659999999999999E-006     2277722.23094930     
  4.680000000000001E-006     2364169.69635558     
  4.700000000000001E-006     2349353.34109007     
  4.720000000000001E-006     2232332.28866515     
  4.740000000000000E-006     2018247.35584658     
  4.760000000000000E-006     1717933.15550604     
  4.780000000000000E-006     1347068.16380809     
  4.800000000000000E-006     924999.589536510     
  4.820000000000000E-006     473435.067085462     
  4.839999999999999E-006     15114.5218620421     
  4.860000000000001E-006    -427479.737619339     
  4.880000000000001E-006    -833432.988843995     
  4.900000000000001E-006    -1184692.09653507     
  4.920000000000000E-006    -1467188.07384150     
  4.940000000000000E-006    -1671587.43387730     
  4.960000000000000E-006    -1793530.17404938     
  4.980000000000000E-006    -1833346.45536324     
  5.000000000000000E-006    -1795459.95869483     
  5.019999999999999E-006    -1687726.21657964     
  5.040000000000001E-006    -1520854.56335128     
  5.060000000000001E-006    -1307866.76065570     
  5.080000000000000E-006    -1063415.94714092     
  5.100000000000000E-006    -802872.865115523     
  5.120000000000000E-006    -541300.681826003     
  5.140000000000000E-006    -292498.581719710     
  5.160000000000000E-006    -68246.7477188054     
  5.180000000000000E-006     122253.516660931     
  5.199999999999999E-006     272858.543402873     
  5.220000000000001E-006     380867.060152247     
  5.240000000000001E-006     447170.027305972     
  5.260000000000000E-006     476008.886392746     
  5.280000000000000E-006     474287.001796654     
  5.300000000000000E-006     450618.319635661     
  5.320000000000000E-006     414378.683523889     
  5.340000000000000E-006     374835.569329171     
  5.360000000000000E-006     340219.456678811     
  5.380000000000001E-006     316587.970557875     
  5.400000000000001E-006     306575.842832534     
  5.420000000000001E-006     308576.740550855     
  5.440000000000000E-006     316979.625433563     
  5.460000000000000E-006     323586.148036224     
  5.480000000000000E-006     319708.771787422     
  5.500000000000000E-006     298091.580065927     
  5.520000000000000E-006     254032.113588332     
  5.539999999999999E-006     185801.515431097     
  5.560000000000001E-006     94927.0868206426     
  5.580000000000001E-006    -13277.7299134127     
  5.600000000000001E-006    -129171.116477078     
  5.620000000000000E-006    -239045.766917095     
  5.640000000000000E-006    -326877.517474024     
  5.660000000000000E-006    -377369.048988269     
  5.680000000000000E-006    -379296.956991930     
  5.700000000000000E-006    -327992.772895480     
  5.719999999999999E-006    -226302.009600887     
  5.740000000000001E-006    -84222.1731214556     
  5.760000000000001E-006     82162.8090410896     
  5.780000000000001E-006     252122.540763853     
  5.800000000000000E-006     402248.087737708     
  5.820000000000000E-006     509259.355048113     
  5.840000000000000E-006     553555.273548467     
  5.860000000000000E-006     522771.451128954     
  5.880000000000000E-006     414407.667772478     
  5.899999999999999E-006     236895.420184072     
  5.920000000000001E-006     8963.20800387239     
  5.940000000000001E-006    -242408.414094149     
  5.960000000000001E-006    -485047.117379206     
  5.980000000000000E-006    -685438.107516957     
  6.000000000000000E-006    -813140.008383738     
  6.020000000000000E-006    -845268.221929034     
  6.040000000000000E-006    -770239.460340107     
  6.060000000000000E-006    -590013.985496998     
  6.079999999999999E-006    -320506.101509843     
  6.100000000000001E-006     9782.14799922385     
  6.120000000000001E-006     362731.503350359     
  6.140000000000001E-006     694901.986092215     
  6.160000000000000E-006     962729.383539919     
  6.180000000000000E-006     1128102.78506539     
  6.200000000000000E-006     1163684.29413744     
  6.220000000000000E-006     1057168.36061473     
  6.240000000000000E-006     813673.585620201     
  6.260000000000001E-006     455796.730673815     
  6.280000000000001E-006     21379.4071073856     
  6.300000000000001E-006    -440677.059238623     
  6.320000000000000E-006    -876078.987859046     
  6.340000000000000E-006    -1231518.91566841     
  6.360000000000000E-006    -1460871.19946504     
  6.380000000000000E-006    -1530634.23417640     
  6.400000000000000E-006    -1424398.78092072     
  6.420000000000000E-006    -1145974.71123844     
  6.439999999999999E-006    -720339.230108047     
  6.459999999999999E-006    -191556.028587949     
  6.480000000000001E-006     382410.078268058     
  6.500000000000000E-006     937034.687227072     
  6.520000000000000E-006     1409113.67281451     
  6.540000000000000E-006     1743560.10617137     
  6.560000000000000E-006     1898455.98654069     
  6.580000000000000E-006     1849025.18835191     
  6.599999999999999E-006     1591341.38249552     
  6.619999999999999E-006     1145214.96189090     
  6.639999999999999E-006     554219.688513710     
  6.660000000000001E-006    -118850.997579069     
  6.680000000000000E-006    -800581.071657210     
  6.700000000000000E-006    -1416868.53644898     
  6.720000000000000E-006    -1901234.23049980     
  6.740000000000000E-006    -2200235.56242764     
  6.760000000000000E-006    -2277009.58962842     
  6.779999999999999E-006    -2114911.85134946     
  6.799999999999999E-006    -1721686.86777624     
  6.819999999999999E-006    -1131970.42394959     
  6.840000000000001E-006    -405104.556220341     
  6.860000000000000E-006     382644.087777020     
  6.880000000000000E-006     1148966.32722869     
  6.900000000000000E-006     1815426.65713472     
  6.920000000000000E-006     2314097.78578057     
  6.940000000000000E-006     2591759.22596280     
  6.959999999999999E-006     2614012.53084550     
  6.979999999999999E-006     2370345.33880232     
  6.999999999999999E-006     1878330.37868388     
  7.020000000000001E-006     1183759.90199076     
  7.040000000000000E-006     355294.327488972     
  7.060000000000000E-006    -524704.997984641     
  7.080000000000000E-006    -1369872.70162784     
  7.100000000000000E-006    -2097648.94903063     
  7.120000000000000E-006    -2635280.56652806     
  7.139999999999999E-006    -2925790.30601538     
  7.159999999999999E-006    -2934710.55450052     
  7.179999999999999E-006    -2655860.06342512     
  7.200000000000001E-006    -2113193.73563099     
  7.220000000000000E-006    -1357427.09069478     
  7.240000000000000E-006    -459291.974031689     
  7.260000000000000E-006     497708.268526413     
  7.280000000000000E-006     1424037.39537540     
  7.300000000000000E-006     2231123.46195755     
  7.319999999999999E-006     2839382.28631683     
  7.339999999999999E-006     3186943.85449091     
  7.359999999999999E-006     3237357.39167133     
  7.380000000000000E-006     2983866.17936795     
  7.400000000000000E-006     2448935.87220525     
  7.420000000000000E-006     1680224.59200566     
  7.440000000000000E-006     745674.665780505     
  7.460000000000000E-006    -271162.001147324     
  7.480000000000000E-006    -1277156.92836158     
  7.499999999999999E-006    -2178316.69932063     
  7.519999999999999E-006    -2889752.29194994     
  7.540000000000001E-006    -3344400.91472473     
  7.560000000000000E-006    -3499179.48609541     
  7.580000000000000E-006    -3338364.88688000     
  7.600000000000000E-006    -2874356.11317498     
  7.620000000000000E-006    -2146315.37556137     
  7.640000000000000E-006    -1217349.51298446     
  7.660000000000000E-006    -169847.503119597     
  7.679999999999999E-006     902138.023584922     
  7.699999999999999E-006     1902737.77403284     
  7.720000000000001E-006     2743375.15471444     
  7.740000000000000E-006     3349438.32268378     
  7.760000000000000E-006     3665692.24277056     
  7.780000000000000E-006     3661518.67827822     
  7.800000000000000E-006     3334793.46213353     
  7.820000000000000E-006     2712677.69010257     
  7.839999999999999E-006     1849088.35957860     
  7.859999999999999E-006     819431.036373750     
  7.879999999999999E-006    -286979.273444859     
  7.900000000000001E-006    -1375478.69219901     
  7.920000000000000E-006    -2353501.99129621     
  7.940000000000000E-006    -3136788.96387215     
  7.960000000000000E-006    -3656215.95681430     
  7.980000000000000E-006    -3865219.76735193     
  8.000000000000000E-006    -3744915.29335927     
  8.019999999999999E-006    -3305107.63817355     
  8.039999999999999E-006    -2582508.27170987     
  8.059999999999999E-006    -1637599.41294989     
  8.080000000000001E-006    -549678.973006136     
  8.100000000000000E-006     590122.202468186     
  8.120000000000000E-006     1686337.50864204     
  8.140000000000000E-006     2646465.36715405     
  8.160000000000000E-006     3389013.26136679     
  8.180000000000000E-006     3851584.43276798     
  8.199999999999999E-006     3996100.99577273     
  8.219999999999999E-006     3810379.19021961     
  8.239999999999999E-006     3308417.44913782     
  8.260000000000001E-006     2530417.44629009     
  8.280000000000000E-006     1540342.26967711     
  8.300000000000000E-006     419874.284757035     
  8.320000000000000E-006    -738987.731835962     
  8.340000000000000E-006    -1840941.72164940     
  8.360000000000000E-006    -2795121.22049664     
  8.379999999999999E-006    -3523661.91369417     
  8.399999999999999E-006    -3968245.28831902     
  8.419999999999999E-006    -4093214.37874313     
  8.440000000000001E-006    -3887445.77749136     
  8.460000000000000E-006    -3366316.35188875     
  8.480000000000000E-006    -2571540.27266620     
  8.500000000000000E-006    -1567259.31826168     
  8.520000000000000E-006    -434271.293384069     
  8.540000000000000E-006     735928.385545059     
  8.559999999999999E-006     1848517.46969263     
  8.579999999999999E-006     2814424.09349941     
  8.600000000000001E-006     3558010.46430512     
  8.620000000000000E-006     4021322.57494251     
  8.640000000000000E-006     4167040.15975656     
  8.660000000000000E-006     3982226.12448434     
  8.680000000000000E-006     3481013.00922513     
  8.700000000000000E-006     2703603.24886269     
  8.720000000000000E-006     1712185.82918552     
  8.739999999999999E-006     585613.662696341     
  8.759999999999999E-006    -587090.778341306     
  8.780000000000001E-006    -1714331.81874548     
  8.800000000000000E-006    -2708970.78371329     
  8.820000000000000E-006    -3493833.76552116     
  8.840000000000000E-006    -4007021.55881555     
  8.860000000000000E-006    -4207810.06910507     
  8.880000000000000E-006    -4081097.22251462     
  8.899999999999999E-006    -3638227.01226900     
  8.919999999999999E-006    -2914783.20509016     
  8.939999999999999E-006    -1967102.95390796     
  8.960000000000001E-006    -868009.258813901     
  8.980000000000000E-006     298366.519901654     
  9.000000000000000E-006     1442531.82767396     
  9.020000000000000E-006     2476310.16312241     
  9.040000000000000E-006     3320041.79192041     
  9.060000000000000E-006     3909272.18883838     
  9.079999999999999E-006     4199651.60875882     
  9.099999999999999E-006     4169849.13000156     
  9.119999999999999E-006     3823055.76362197     
  9.140000000000001E-006     3186767.87647813     
  9.160000000000000E-006     2310163.14348862     
  9.180000000000000E-006     1259820.65584689     
  9.200000000000000E-006     114899.235150663     
  9.220000000000000E-006    -1038397.95427317     
  9.240000000000000E-006    -2113222.12227974     
  9.259999999999999E-006    -3028542.50771672     
  9.279999999999999E-006    -3715163.42472378     
  9.299999999999999E-006    -4121408.04070062     
  9.320000000000001E-006    -4217922.28563327     
  9.340000000000000E-006    -3999794.54756977     
  9.360000000000000E-006    -3485190.56337410     
  9.380000000000000E-006    -2712625.40931238     
  9.400000000000000E-006    -1738837.07508067     
  9.420000000000000E-006    -636000.929144084     
  9.439999999999999E-006     513361.580619075     
  9.459999999999999E-006     1623166.77745678     
  9.479999999999999E-006     2610869.38570275     
  9.500000000000001E-006     3403887.90879154     
  9.520000000000000E-006     3944769.49376714     
  9.540000000000000E-006     4194816.16045127     
  9.560000000000000E-006     4136201.58171541     
  9.580000000000000E-006     3773357.65650837     
  9.600000000000000E-006     3133666.94756799     
  9.619999999999999E-006     2265650.00736927     
  9.639999999999999E-006     1234231.16013406     
  9.660000000000001E-006     115054.712082986     
  9.680000000000000E-006    -1010931.80609420     
  9.700000000000000E-006    -2062538.27588819     
  9.720000000000000E-006    -2963230.78118255     
  9.740000000000000E-006    -3646654.93363587     
  9.760000000000000E-006    -4062608.39523619     
  9.780000000000000E-006    -4181834.91899751     
  9.799999999999999E-006    -3998092.37563401     
  9.819999999999999E-006    -3526947.66343366     
  9.840000000000001E-006    -2803076.79288732     
  9.860000000000000E-006    -1878339.52051063     
  9.880000000000000E-006    -819381.697425227     
  9.900000000000000E-006     297033.459883723     
  9.920000000000000E-006     1389928.84938465     
  9.940000000000000E-006     2380298.19339345     
  9.960000000000000E-006     3197301.69699611     
  9.979999999999999E-006     3783439.13545071     
  9.999999999999999E-006     4098100.39601702     
  1.002000000000000E-005     4119565.77647867     
  1.004000000000000E-005     3846300.08447268     
  1.006000000000000E-005     3298336.57370460     
  1.008000000000000E-005     2516622.32353365     
  1.010000000000000E-005     1558637.77555179     
  1.012000000000000E-005     492994.362282996     
  1.014000000000000E-005    -605039.216694976     
  1.016000000000000E-005    -1658079.56280456     
  1.018000000000000E-005    -2591634.46663753     
  1.020000000000000E-005    -3339527.85584836     
  1.022000000000000E-005    -3849119.93526249     
  1.024000000000000E-005    -4085077.54747971     
  1.026000000000000E-005    -4031951.33476520     
  1.028000000000000E-005    -3695219.91391251     
  1.030000000000000E-005    -3099863.11073697     
  1.032000000000000E-005    -2288218.95019875     
  1.034000000000000E-005    -1317828.79870158     
  1.036000000000000E-005    -257553.221051871     
  1.038000000000000E-005     817652.053743309     
  1.040000000000000E-005     1832309.84797071     
  1.042000000000000E-005     2716084.02744327     
  1.044000000000000E-005     3408215.62050948     
  1.046000000000000E-005     3861007.80988205     
  1.048000000000000E-005     4043346.47418863     
  1.050000000000000E-005     3943038.06338570     
  1.052000000000000E-005     3567859.83043416     
  1.054000000000000E-005     2945438.06341562     