 -1.200000000000000E-006    0.000000000000000E+000
 -1.180000000000000E-006    0.000000000000000E+000
 -1.160000000000000E-006    0.000000000000000E+000
 -1.140000000000000E-006    0.000000000000000E+000
 -1.120000000000000E-006    0.000000000000000E+000
 -1.100000000000000E-006    0.000000000000000E+000
 -1.080000000000000E-006    0.000000000000000E+000
 -1.060000000000000E-006    0.000000000000000E+000
 -1.040000000000000E-006    0.000000000000000E+000
 -1.020000000000000E-006    0.000000000000000E+000
 -1.000000000000000E-006    0.000000000000000E+000
 -9.799999999999999E-007    0.000000000000000E+000
 -9.599999999999999E-007    0.000000000000000E+000
 -9.399999999999999E-007    0.000000000000000E+000
 -9.199999999999999E-007    0.000000000000000E+000
 -9.000000000000000E-007    0.000000000000000E+000
 -8.799999999999999E-007    0.000000000000000E+000
 -8.599999999999999E-007    0.000000000000000E+000
 -8.400000000000000E-007    0.000000000000000E+000
 -8.200000000000000E-007    0.000000000000000E+000
 -8.000000000000000E-007    0.000000000000000E+000
 -7.799999999999999E-007    0.000000000000000E+000
 -7.599999999999999E-007    0.000000000000000E+000
 -7.399999999999999E-007    0.000000000000000E+000
 -7.199999999999999E-007    0.000000000000000E+000
 -7.000000000000000E-007    0.000000000000000E+000
 -6.799999999999999E-007    0.000000000000000E+000
 -6.599999999999999E-007    0.000000000000000E+000
 -6.399999999999999E-007    0.000000000000000E+000
 -6.199999999999999E-007    0.000000000000000E+000
 -6.000000000000000E-007    0.000000000000000E+000
 -5.800000000000000E-007    0.000000000000000E+000
 -5.599999999999999E-007    0.000000000000000E+000
 -5.399999999999999E-007    0.000000000000000E+000
 -5.199999999999999E-007    0.000000000000000E+000
 -5.000000000000000E-007    0.000000000000000E+000
 -4.800000000000000E-007    0.000000000000000E+000
 -4.599999999999999E-007    0.000000000000000E+000
 -4.399999999999999E-007    0.000000000000000E+000
 -4.199999999999999E-007    0.000000000000000E+000
 -4.000000000000000E-007    0.000000000000000E+000
 -3.800000000000000E-007    0.000000000000000E+000
 -3.599999999999999E-007    0.000000000000000E+000
 -3.399999999999999E-007    0.000000000000000E+000
 -3.199999999999999E-007    0.000000000000000E+000
 -2.999999999999999E-007    0.000000000000000E+000
 -2.800000000000000E-007    0.000000000000000E+000
 -2.599999999999999E-007    0.000000000000000E+000
 -2.399999999999998E-007    0.000000000000000E+000
 -2.200000000000000E-007    0.000000000000000E+000
 -2.000000000000000E-007    0.000000000000000E+000
 -1.800000000000000E-007    0.000000000000000E+000
 -1.600000000000000E-007    0.000000000000000E+000
 -1.399999999999999E-007    0.000000000000000E+000
 -1.199999999999999E-007    0.000000000000000E+000
 -9.999999999999989E-008    0.000000000000000E+000
 -7.999999999999987E-008    0.000000000000000E+000
 -5.999999999999985E-008    0.000000000000000E+000
 -3.999999999999983E-008    0.000000000000000E+000
 -2.000000000000002E-008    0.000000000000000E+000
  0.000000000000000E+000    0.000000000000000E+000
  2.000000000000002E-008    0.000000000000000E+000
  4.000000000000004E-008    0.000000000000000E+000
  6.000000000000006E-008    0.000000000000000E+000
  8.000000000000008E-008    0.000000000000000E+000
  1.000000000000001E-007    0.000000000000000E+000
  1.200000000000001E-007    0.000000000000000E+000
  1.400000000000001E-007    0.000000000000000E+000
  1.600000000000002E-007    0.000000000000000E+000
  1.800000000000002E-007    0.000000000000000E+000
  2.000000000000000E-007    0.000000000000000E+000
  2.200000000000000E-007    0.000000000000000E+000
  2.400000000000000E-007    0.000000000000000E+000
  2.600000000000001E-007    0.000000000000000E+000
  2.800000000000001E-007    0.000000000000000E+000
  3.000000000000001E-007    0.000000000000000E+000
  3.200000000000001E-007    0.000000000000000E+000
  3.400000000000001E-007    0.000000000000000E+000
  3.600000000000002E-007    0.000000000000000E+000
  3.800000000000002E-007    0.000000000000000E+000
  4.000000000000000E-007    0.000000000000000E+000
  4.200000000000000E-007    0.000000000000000E+000
  4.400000000000000E-007    0.000000000000000E+000
  4.600000000000000E-007    0.000000000000000E+000
  4.800000000000001E-007    0.000000000000000E+000
  5.000000000000001E-007    0.000000000000000E+000
  5.200000000000001E-007    0.000000000000000E+000
  5.400000000000001E-007    0.000000000000000E+000
  5.600000000000001E-007    0.000000000000000E+000
  5.800000000000002E-007    0.000000000000000E+000
  6.000000000000002E-007    0.000000000000000E+000
  6.200000000000000E-007    0.000000000000000E+000
  6.400000000000000E-007    0.000000000000000E+000
  6.600000000000000E-007    0.000000000000000E+000
  6.800000000000001E-007    0.000000000000000E+000
  7.000000000000001E-007    0.000000000000000E+000
  7.200000000000003E-007    0.000000000000000E+000
  7.400000000000001E-007    0.000000000000000E+000
  7.599999999999999E-007    0.000000000000000E+000
  7.800000000000002E-007    0.000000000000000E+000
  8.000000000000000E-007    0.000000000000000E+000
  8.200000000000002E-007    0.000000000000000E+000
  8.400000000000000E-007    0.000000000000000E+000
  8.600000000000002E-007    0.000000000000000E+000
  8.800000000000000E-007    0.000000000000000E+000
  9.000000000000003E-007    0.000000000000000E+000
  9.200000000000001E-007    0.000000000000000E+000
  9.399999999999999E-007    0.000000000000000E+000
  9.600000000000001E-007    0.000000000000000E+000
  9.799999999999999E-007    0.000000000000000E+000
  1.000000000000000E-006    0.000000000000000E+000
  1.020000000000000E-006    0.000000000000000E+000
  1.040000000000000E-006    0.000000000000000E+000
  1.060000000000000E-006    0.000000000000000E+000
  1.080000000000000E-006    0.000000000000000E+000
  1.100000000000000E-006    0.000000000000000E+000
  1.120000000000000E-006    0.000000000000000E+000
  1.140000000000000E-006    0.000000000000000E+000
  1.160000000000000E-006    0.000000000000000E+000
  1.180000000000000E-006    0.000000000000000E+000
  1.200000000000000E-006    0.000000000000000E+000
  1.220000000000000E-006    0.000000000000000E+000
  1.240000000000000E-006    0.000000000000000E+000
  1.260000000000000E-006    0.000000000000000E+000
  1.280000000000000E-006    0.000000000000000E+000
  1.300000000000000E-006    0.000000000000000E+000
  1.320000000000000E-006    0.000000000000000E+000
  1.340000000000000E-006    0.000000000000000E+000
  1.360000000000000E-006    0.000000000000000E+000
  1.380000000000000E-006    0.000000000000000E+000
  1.400000000000000E-006    0.000000000000000E+000
  1.420000000000000E-006    0.000000000000000E+000
  1.440000000000000E-006    0.000000000000000E+000
  1.460000000000000E-006    0.000000000000000E+000
  1.480000000000000E-006    0.000000000000000E+000
  1.500000000000000E-006    0.000000000000000E+000
  1.520000000000000E-006    0.000000000000000E+000
  1.540000000000000E-006    0.000000000000000E+000
  1.560000000000000E-006    0.000000000000000E+000
  1.580000000000000E-006    0.000000000000000E+000
  1.600000000000000E-006    0.000000000000000E+000
  1.620000000000000E-006    0.000000000000000E+000
  1.640000000000000E-006    0.000000000000000E+000
  1.660000000000000E-006    0.000000000000000E+000
  1.680000000000000E-006    0.000000000000000E+000
  1.700000000000000E-006    0.000000000000000E+000
  1.720000000000000E-006    0.000000000000000E+000
  1.740000000000000E-006    0.000000000000000E+000
  1.760000000000000E-006    0.000000000000000E+000
  1.780000000000000E-006    0.000000000000000E+000
  1.800000000000000E-006    0.000000000000000E+000
  1.820000000000000E-006    0.000000000000000E+000
  1.840000000000000E-006    0.000000000000000E+000
  1.860000000000000E-006    0.000000000000000E+000
  1.880000000000000E-006    0.000000000000000E+000
  1.900000000000000E-006    0.000000000000000E+000
  1.920000000000000E-006    0.000000000000000E+000
  1.940000000000000E-006   -2.400453376522971E-039
  1.960000000000000E-006   -4.800906753045943E-039
  1.980000000000000E-006    3.306170228207204E-038
  2.000000000000000E-006   -2.975064225378317E-038
  2.020000000000000E-006    2.214249319485992E-038
  2.040000000000000E-006    7.931779002444175E-038
  2.060000000000000E-006   -3.099787211933066E-037
  2.080000000000000E-006    7.601613666202679E-037
  2.100000000000000E-006   -7.786132400531915E-038
  2.120000000000000E-006   -2.240153324473077E-036
  2.140000000000000E-006    4.252763180628604E-036
  2.160000000000000E-006   -9.964832167411217E-037
  2.180000000000000E-006   -7.835297900338010E-036
  2.200000000000000E-006    1.327679322744077E-035
  2.220000000000000E-006   -5.749236991562333E-036
  2.240000000000000E-006   -2.241285581032935E-035
  2.260000000000000E-006    4.499744719986212E-035
  2.280000000000000E-006   -1.723064516036452E-035
  2.300000000000000E-006   -5.923635430255505E-035
  2.320000000000000E-006    1.301758852058977E-034
  2.340000000000000E-006   -8.457658213421354E-035
  2.360000000000000E-006   -1.768275554857891E-034
  2.380000000000000E-006    4.295985181887052E-034
  2.400000000000000E-006   -1.767717649216294E-034
  2.420000000000000E-006   -4.971680566047384E-034
  2.440000000000000E-006    9.721892053458109E-034
  2.460000000000000E-006   -7.624524536120853E-034
  2.480000000000000E-006   -1.007938051329919E-033
  2.500000000000000E-006    3.426985834832932E-033
  2.520000000000000E-006   -1.810614029425793E-033
  2.540000000000000E-006   -3.715143874345255E-033
  2.560000000000000E-006    6.447176576022252E-033
  2.580000000000000E-006   -5.384081915561929E-033
  2.600000000000000E-006   -3.873520254661843E-033
  2.620000000000000E-006    2.304257675387471E-032
  2.640000000000001E-006   -1.567803540221689E-032
  2.660000000000000E-006   -2.416152577527396E-032
  2.680000000000000E-006    3.470734119956241E-032
  2.700000000000000E-006   -3.225435191925849E-032
  2.720000000000000E-006    6.254839936219872E-033
  2.740000000000000E-006    1.388397458333048E-031
  2.760000000000000E-006   -1.290866176406892E-031
  2.780000000000000E-006   -1.600746378974821E-031
  2.800000000000000E-006    1.483341257969983E-031
  2.820000000000001E-006   -1.169521213984074E-031
  2.840000000000000E-006    2.912394094912951E-031
  2.860000000000000E-006    6.877443350534834E-031
  2.880000000000000E-006   -1.042621866628632E-030
  2.900000000000000E-006   -9.706419085798751E-031
  2.920000000000000E-006    5.817243882408110E-031
  2.940000000000000E-006   -9.326911270674961E-032
  2.960000000000000E-006    2.886327186129057E-030
  2.980000000000000E-006    2.945360847268043E-030
  3.000000000000000E-006   -6.615142585241332E-030
  3.020000000000000E-006   -5.283016396097790E-030
  3.040000000000000E-006    8.852485014293721E-032
  3.060000000000000E-006    5.102028875556733E-031
  3.080000000000000E-006    2.250572436133501E-029
  3.100000000000000E-006    1.734469988079434E-029
  3.120000000000000E-006   -3.241246318342719E-029
  3.140000000000000E-006   -3.429652502164401E-029
  3.160000000000000E-006   -3.207736144125299E-029
  3.180000000000000E-006   -2.846455627279381E-030
  3.200000000000000E-006    1.563318698354596E-028
  3.220000000000000E-006    1.346355156220362E-028
  3.240000000000000E-006   -1.037606586932014E-028
  3.260000000000001E-006   -2.103597559911769E-028
  3.280000000000000E-006   -3.905562309333894E-028
  3.300000000000000E-006   -1.790050564862021E-028
  3.320000000000000E-006    8.483978707325084E-028
  3.340000000000000E-006    1.051950944683515E-027
  3.360000000000000E-006    2.444393713105744E-028
  3.380000000000000E-006   -8.365896824183193E-028
  3.400000000000000E-006   -3.086237768325076E-027
  3.420000000000000E-006   -2.668816092148223E-027
  3.440000000000001E-006    2.777961640959159E-027
  3.460000000000000E-006    6.426463621286268E-027
  3.480000000000000E-006    6.823703396362533E-027
  3.500000000000000E-006    1.339223059476262E-027
  3.520000000000000E-006   -1.607583643804713E-026
  3.540000000000000E-006   -2.363300656867710E-026
  3.560000000000000E-006   -5.033762960651906E-027
  3.580000000000000E-006    2.303913190813690E-026
  3.600000000000000E-006    5.533310052110704E-026
  3.620000000000000E-006    5.068941641195023E-026
  3.640000000000000E-006   -3.996712602087356E-026
  3.660000000000000E-006   -1.284588789784581E-025
  3.680000000000000E-006   -1.239757674181476E-025
  3.700000000000001E-006   -1.132265556562824E-026
  3.720000000000000E-006    2.358858132938608E-025
  3.740000000000000E-006    3.741719113703011E-025
  3.760000000000000E-006    9.394190187056154E-026
  3.780000000000000E-006   -3.787481124358114E-025
  3.800000000000000E-006   -6.882893264794122E-025
  3.820000000000001E-006   -4.636624239367511E-025
  3.840000000000001E-006    6.233850004486020E-025
  3.860000000000000E-006    1.455785517969080E-024
  3.880000000000000E-006    5.334402496489764E-025
  3.900000000000000E-006   -1.561638164386102E-024
  3.920000000000000E-006   -2.942950314354504E-024
  3.940000000000000E-006   -6.105201302698860E-025
  3.959999999999999E-006    6.681210874982918E-024
  3.980000000000001E-006    1.110772152823327E-023
  4.000000000000001E-006    1.098071294484446E-024
  4.020000000000000E-006   -2.422760794506085E-023
  4.040000000000000E-006   -4.676308069626668E-023
  4.060000000000000E-006   -2.669602283102783E-023
  4.080000000000000E-006    6.460372291195900E-023
  4.100000000000000E-006    1.789944890176125E-022
  4.120000000000000E-006    1.820599667288193E-022
  4.139999999999999E-006   -6.327134059548817E-023
  4.160000000000001E-006   -5.293118676018069E-022
  4.180000000000001E-006   -8.469548849363428E-022
  4.200000000000000E-006   -4.141838897646711E-022
  4.220000000000000E-006    1.055231916714952E-021
  4.240000000000000E-006    2.861220758717530E-021
  4.260000000000000E-006    3.107842909293858E-021
  4.280000000000000E-006   -2.599739951194741E-022
  4.299999999999999E-006   -7.017645404749784E-021
  4.320000000000001E-006   -1.257264644745176E-020
  4.340000000000001E-006   -8.989298579162270E-021
  4.360000000000001E-006    9.139595125182186E-021
  4.380000000000000E-006    3.562951672573008E-020
  4.400000000000000E-006    4.807913114494774E-020
  4.420000000000000E-006    1.768854034480598E-020
  4.440000000000000E-006   -6.422446267548989E-020
  4.460000000000000E-006   -1.564289126273987E-019
  4.479999999999999E-006   -1.648265703649545E-019
  4.500000000000001E-006    3.464837467446046E-021
  4.520000000000001E-006    3.354723278613784E-019
  4.540000000000001E-006    6.249275222971019E-019
  4.560000000000000E-006    5.123867611355368E-019
  4.580000000000000E-006   -2.693230065613019E-019
  4.600000000000000E-006   -1.517651506776692E-018
  4.620000000000000E-006   -2.336045206347134E-018
  4.640000000000000E-006   -1.440573008722706E-018
  4.659999999999999E-006    1.839834939876071E-018
  4.680000000000001E-006    6.285815324534563E-018
  4.700000000000001E-006    8.322847317084917E-018
  4.720000000000001E-006    3.586294034745351E-018
  4.740000000000000E-006   -9.282980253222282E-018
  4.760000000000000E-006   -2.451182972300793E-017
  4.780000000000000E-006   -2.866284509405686E-017
  4.800000000000000E-006   -7.424962427855970E-018
  4.820000000000000E-006    4.069916559545206E-017
  4.839999999999999E-006    9.150957398012876E-017
  4.860000000000001E-006    9.658448930777575E-017
  4.880000000000001E-006    1.010963977269315E-017
  4.900000000000001E-006   -1.635832850913648E-016
  4.920000000000000E-006   -3.306750877424869E-016
  4.940000000000000E-006   -3.220588271960284E-016
  4.960000000000000E-006    7.262288438431128E-018
  4.980000000000000E-006    6.175742901593868E-016
  5.000000000000000E-006    1.165338209245129E-015
  5.019999999999999E-006    1.073680660079444E-015
  5.040000000000001E-006   -1.169624931864492E-016
  5.060000000000001E-006   -2.217151036385155E-015
  5.080000000000000E-006   -4.025202684798621E-015
  5.100000000000000E-006   -3.608168453968649E-015
  5.120000000000000E-006    5.100378398922419E-016
  5.140000000000000E-006    7.614097476930693E-015
  5.160000000000000E-006    1.366441370044957E-014
  5.180000000000000E-006    1.227711069793267E-014
  5.199999999999999E-006   -1.390374130252547E-015
  5.220000000000001E-006   -2.504473167844835E-014
  5.240000000000001E-006   -4.560784220261705E-014
  5.260000000000000E-006   -4.227595609111371E-014
  5.280000000000000E-006    1.199506024048038E-015
  5.300000000000000E-006    7.865593047235568E-014
  5.320000000000000E-006    1.493756074583061E-013
  5.340000000000000E-006    1.465516613132240E-013
  5.360000000000000E-006    1.474391813454161E-014
  5.380000000000001E-006   -2.338314747385520E-013
  5.400000000000001E-006   -4.779284378897263E-013
  5.420000000000001E-006   -5.069690830783804E-013
  5.440000000000000E-006   -1.306764814931462E-013
  5.460000000000000E-006    6.464427154552238E-013
  5.480000000000000E-006    1.482953661314515E-012
  5.500000000000000E-006    1.731575011642627E-012
  5.520000000000000E-006    7.439562425657702E-013
  5.539999999999999E-006   -1.601273743600843E-012
  5.560000000000001E-006   -4.414063674943811E-012
  5.580000000000001E-006   -5.772554977979676E-012
  5.600000000000001E-006   -3.512497399789625E-012
  5.620000000000000E-006    3.227987967964645E-012
  5.640000000000000E-006    1.239525123992741E-011
  5.660000000000000E-006    1.855230242993108E-011
  5.680000000000000E-006    1.471338122754010E-011
  5.700000000000000E-006   -3.348095185660930E-012
  5.719999999999999E-006   -3.192281933805974E-011
  5.740000000000001E-006   -5.666225635177138E-011
  5.760000000000001E-006   -5.605929890193939E-011
  5.780000000000001E-006   -1.266392591331989E-011
  5.800000000000000E-006    7.112805566722725E-011
  5.820000000000000E-006    1.613090765913277E-010
  5.840000000000000E-006    1.957718670856796E-010
  5.860000000000000E-006    1.105864637307600E-010
  5.880000000000000E-006   -1.149937978589788E-010
  5.899999999999999E-006   -4.147261652100368E-010
  5.920000000000001E-006   -6.245341801442025E-010
  5.940000000000001E-006   -5.334537783656490E-010
  5.960000000000001E-006   -5.360583884429991E-013
  5.980000000000000E-006    9.007829773342818E-010
  6.000000000000000E-006    1.792133444200934E-009
  6.020000000000000E-006    2.049144300064472E-009
  6.040000000000000E-006    1.065003669623111E-009
  6.060000000000000E-006   -1.327591785954135E-009
  6.079999999999999E-006   -4.455400544222728E-009
  6.100000000000001E-006   -6.701789614458346E-009
  6.120000000000001E-006   -5.958946573889702E-009
  6.140000000000001E-006   -6.953401801684803E-010
  6.160000000000000E-006    8.657499304555543E-009
  6.180000000000000E-006    1.868543356404962E-008
  6.200000000000000E-006    2.322957473916905E-008
  6.220000000000000E-006    1.554827970558166E-008
  6.240000000000000E-006   -7.712805903364144E-009
  6.260000000000001E-006   -4.207173713437743E-008
  6.280000000000001E-006   -7.278720231567377E-008
  6.300000000000001E-006   -7.735438758439968E-008
  6.320000000000000E-006   -3.465229971343177E-008
  6.340000000000000E-006    6.054705633131941E-008
  6.360000000000000E-006    1.832648773756150E-007
  6.380000000000000E-006    2.734323969431576E-007
  6.400000000000000E-006    2.500537579483348E-007
  6.420000000000000E-006    4.857522902722680E-008
  6.439999999999999E-006   -3.262759423503504E-007
  6.459999999999999E-006   -7.551865824474208E-007
  6.480000000000001E-006   -1.000712448107110E-006
  6.500000000000000E-006   -7.768571872372539E-007
  6.520000000000000E-006    1.018461160622226E-007
  6.540000000000000E-006    1.531900745310950E-006
  6.560000000000000E-006    2.986296435777904E-006
  6.580000000000000E-006    3.557032948527362E-006
  6.599999999999999E-006    2.269461783500707E-006
  6.619999999999999E-006   -1.345413493443273E-006
  6.639999999999999E-006   -6.608528644268013E-006
  6.660000000000001E-006   -1.133991223846365E-005
  6.680000000000000E-006   -1.221340829534506E-005
  6.700000000000000E-006   -6.069092107903064E-006
  6.720000000000000E-006    8.003561103357927E-006
  6.740000000000000E-006    2.660566019749536E-005
  6.760000000000000E-006    4.128960746959257E-005
  6.779999999999999E-006    4.045647824285312E-005
  6.799999999999999E-006    1.441864909622608E-005
  6.819999999999999E-006   -3.745742698569643E-005
  6.840000000000001E-006   -1.005722898151415E-004
  6.860000000000000E-006   -1.442346565115822E-004
  6.880000000000000E-006   -1.299499919487507E-004
  6.900000000000000E-006   -2.951551153410547E-005
  6.920000000000000E-006    1.518892377635060E-004
  6.940000000000000E-006    3.582898262048845E-004
  6.959999999999999E-006    4.848326870404146E-004
  6.979999999999999E-006    4.093567714255105E-004
  6.999999999999999E-006    5.264326729620189E-005
  7.020000000000001E-006   -5.507994408130647E-004
  7.040000000000000E-006   -1.205926229283391E-003
  7.060000000000000E-006   -1.574558182265846E-003
  7.080000000000000E-006   -1.283183829812037E-003
  7.100000000000000E-006   -1.109006354251697E-004
  7.120000000000000E-006    1.803035574044109E-003
  7.139999999999999E-006    3.835876380647914E-003
  7.159999999999999E-006    4.954739939957720E-003
  7.179999999999999E-006    4.050838195214906E-003
  7.200000000000001E-006    4.910106028879358E-004
  7.220000000000000E-006   -5.295384775123738E-003
  7.240000000000000E-006   -1.148613899757691E-002
  7.260000000000000E-006   -1.509372279055793E-002
  7.280000000000000E-006   -1.290847628326614E-002
  7.300000000000000E-006   -3.022106923745100E-003
  7.319999999999999E-006    1.356370443412406E-002
  7.339999999999999E-006    3.201173570538041E-002
  7.359999999999999E-006    4.418482098916760E-002
  7.380000000000000E-006    4.104714300396851E-002
  7.400000000000000E-006    1.660377990265506E-002
  7.420000000000000E-006   -2.783490746123765E-002
  7.440000000000000E-006   -8.094624975915379E-002
  7.460000000000000E-006   -0.122178029513548     
  7.480000000000000E-006   -0.127117226966913     
  7.499999999999999E-006   -7.687339643124713E-002
  7.519999999999999E-006    3.113245858401567E-002
  7.540000000000001E-006    0.175201882622312     
  7.560000000000000E-006    0.308775172850359     
  7.580000000000000E-006    0.370247525652435     
  7.600000000000000E-006    0.302853240782413     
  7.620000000000000E-006    7.997029775734077E-002
  7.640000000000000E-006   -0.272558170407033     
  7.660000000000000E-006   -0.667000929219902     
  7.679999999999999E-006   -0.965159490947692     
  7.699999999999999E-006    -1.01296861603675     
  7.720000000000001E-006   -0.692627559495272     
  7.740000000000000E-006    2.139790629830740E-002
  7.760000000000000E-006     1.02128161098350     
  7.780000000000000E-006     2.05824181526975     
  7.800000000000000E-006     2.78060481787663     
  7.820000000000000E-006     2.81789298999198     
  7.839999999999999E-006     1.89686159075581     
  7.859999999999999E-006   -3.785118392013231E-002
  7.879999999999999E-006    -2.73398460717518     
  7.900000000000001E-006    -5.60833702903108     
  7.920000000000000E-006    -7.81577411255502     
  7.940000000000000E-006    -8.41745823849549     
  7.960000000000000E-006    -6.62949375418566     
  7.980000000000000E-006    -2.10497312502187     
  8.000000000000000E-006     4.82137022210667     
  8.019999999999999E-006     13.0082366844819     
  8.039999999999999E-006     20.5760488892662     
  8.059999999999999E-006     25.2074337720002     
  8.080000000000001E-006     24.6598399942651     
  8.100000000000000E-006     17.3972754778746     
  8.120000000000000E-006     3.18131459773927     
  8.140000000000000E-006    -16.5721622669601     
  8.160000000000000E-006    -38.8401768688581     
  8.180000000000000E-006    -59.5225857835651     
  8.199999999999999E-006    -74.3864495551212     
  8.219999999999999E-006    -80.1940379443673     
  8.239999999999999E-006    -75.6642883516396     
  8.260000000000001E-006    -61.8967812170499     
  8.280000000000000E-006    -41.9979070160072     
  8.300000000000000E-006    -19.8772653717753     
  8.320000000000000E-006     1.54536173691430     
  8.340000000000000E-006     22.2672792475823     
  8.360000000000000E-006     46.7534469917864     
  8.379999999999999E-006     84.7761913141701     
  8.399999999999999E-006     151.570602422052     
  8.419999999999999E-006     267.763300660118     
  8.440000000000001E-006     459.868269867176     
  8.460000000000000E-006     762.199541592603     
  8.480000000000000E-006     1220.70417051583     
  8.500000000000000E-006     1898.61441139050     
  8.520000000000000E-006     2883.02677963399     
  8.540000000000000E-006     4290.86480632766     
  8.559999999999999E-006     6272.55976842832     
  8.579999999999999E-006     9011.87929474982     
  8.600000000000001E-006     12721.0813040113     
  8.620000000000000E-006     17631.2403334569     
  8.640000000000000E-006     23977.9967427835     
  8.660000000000000E-006     31982.8839527961     
  8.680000000000000E-006     41829.9315845765     
  8.700000000000000E-006     53636.2578634017     
  8.720000000000000E-006     67415.2328018530     
  8.739999999999999E-006     83031.0780562653     
  8.759999999999999E-006     100146.058851428     
  8.780000000000001E-006     118163.706017757     
  8.800000000000000E-006     136175.594798225     
  8.820000000000000E-006     152921.858912969     
  8.840000000000000E-006     166777.281295841     
  8.860000000000000E-006     175774.063515200     
  8.880000000000000E-006     177669.931830832     
  8.899999999999999E-006     170065.864771293     
  8.919999999999999E-006     150571.485794786     
  8.939999999999999E-006     117011.290144745     
  8.960000000000001E-006     67662.5190673193     
  8.980000000000000E-006     1507.81533563076     
  9.000000000000000E-006    -81513.9625316467     
  9.020000000000000E-006    -180280.451616198     
  9.040000000000000E-006    -292307.597387813     
  9.060000000000000E-006    -413647.939421273     
  9.079999999999999E-006    -538893.158815950     
  9.099999999999999E-006    -661300.765874394     
  9.119999999999999E-006    -773063.964381171     
  9.140000000000001E-006    -865721.029385523     
  9.160000000000000E-006    -930694.143245692     
  9.180000000000000E-006    -959921.629577847     
  9.200000000000000E-006    -946534.425538769     
  9.220000000000000E-006    -885528.113071284     
  9.240000000000000E-006    -774365.795777443     
  9.259999999999999E-006    -613449.241254268     
  9.279999999999999E-006    -406409.843775678     
  9.299999999999999E-006    -160174.182971828     
  9.320000000000001E-006     115222.184725013     
  9.340000000000000E-006     407083.812714861     
  9.360000000000000E-006     700756.962324684     
  9.380000000000000E-006     980536.643834752     
  9.400000000000000E-006     1230717.66606834     
  9.420000000000000E-006     1436704.78838099     
  9.439999999999999E-006     1586077.74220775     
  9.459999999999999E-006     1669505.36074482     
  9.479999999999999E-006     1681437.65724238     
  9.500000000000001E-006     1620491.04820271     
  9.520000000000000E-006     1489538.93072576     
  9.540000000000000E-006     1295486.08986658     
  9.560000000000000E-006     1048753.79471839     
  9.580000000000000E-006     762558.787693393     
  9.600000000000000E-006     452023.345999834     
  9.619999999999999E-006     133180.390362337     
  9.639999999999999E-006    -178055.649039699     
  9.660000000000001E-006    -466884.052929057     
  9.680000000000000E-006    -720511.707420044     
  9.700000000000000E-006    -928870.973044486     
  9.720000000000000E-006    -1085110.84072763     
  9.740000000000000E-006    -1185806.53424444     
  9.760000000000000E-006    -1230884.92011941     
  9.780000000000000E-006    -1223311.77718191     
  9.799999999999999E-006    -1168588.30072689     
  9.819999999999999E-006    -1074124.97307389     
  9.840000000000001E-006    -948576.389010545     
  9.860000000000000E-006    -801189.840094461     
  9.880000000000000E-006    -641214.537295851     
  9.900000000000000E-006    -477387.784399109     
  9.920000000000000E-006    -317509.968843958     
  9.940000000000000E-006    -168121.683971199     
  9.960000000000000E-006    -34296.9752971363     
  9.979999999999999E-006     80457.1180376210     
  9.999999999999999E-006     174185.243370974     
  1.002000000000000E-005     246348.251272362     
  1.004000000000000E-005     297586.126302629     
  1.006000000000000E-005     329420.153190452     
  1.008000000000000E-005     343958.827133589     
  1.010000000000000E-005     343655.270789614     
  1.012000000000000E-005     331130.313141694     
  1.014000000000000E-005     309072.505436754     
  1.016000000000000E-005     280183.216800786     
  1.018000000000000E-005     247101.977254488     
  1.020000000000000E-005     212281.279416319     
  1.022000000000000E-005     177828.460031358     
  1.024000000000000E-005     145366.391629838     
  1.026000000000000E-005     115956.650786692     
  1.028000000000000E-005     90101.6329684397     
  1.030000000000000E-005     67840.7255351487     
  1.032000000000000E-005     48920.9163441889     
  1.034000000000000E-005     32962.9029668726     
  1.036000000000000E-005     19574.2572439982     
  1.038000000000000E-005     8407.11662627098     
  1.040000000000000E-005    -841.410034196333     
  1.042000000000000E-005    -8453.60685400087     
  1.044000000000000E-005    -14686.7190953289     
  1.046000000000000E-005    -19713.3781215863     
  1.048000000000000E-005    -23527.5986324752     
  1.050000000000000E-005    -25899.9453461547     
  1.052000000000000E-005    -26441.5315210944     
  1.054000000000000E-005    -24760.7046544756     