 -1.200000000000000E-006    0.000000000000000E+000
 -1.180000000000000E-006    0.000000000000000E+000
 -1.160000000000000E-006    0.000000000000000E+000
 -1.140000000000000E-006    0.000000000000000E+000
 -1.120000000000000E-006    0.000000000000000E+000
 -1.100000000000000E-006    0.000000000000000E+000
 -1.080000000000000E-006    0.000000000000000E+000
 -1.060000000000000E-006    0.000000000000000E+000
 -1.040000000000000E-006    0.000000000000000E+000
 -1.020000000000000E-006    0.000000000000000E+000
 -1.000000000000000E-006    0.000000000000000E+000
 -9.799999999999999E-007    0.000000000000000E+000
 -9.599999999999999E-007    0.000000000000000E+000
 -9.399999999999999E-007    0.000000000000000E+000
 -9.199999999999999E-007    0.000000000000000E+000
 -9.000000000000000E-007    0.000000000000000E+000
 -8.799999999999999E-007    0.000000000000000E+000
 -8.599999999999999E-007    0.000000000000000E+000
 -8.400000000000000E-007    0.000000000000000E+000
 -8.200000000000000E-007    0.000000000000000E+000
 -8.000000000000000E-007   -2.699676944721526E-038
 -7.799999999999999E-007    2.495399521074273E-036
 -7.599999999999999E-007   -1.012879583928898E-034
 -7.399999999999999E-007    2.468414217312397E-033
 -7.199999999999999E-007   -4.190141400295938E-032
 -7.000000000000000E-007    5.333906890548308E-031
 -6.799999999999999E-007   -5.320440012267918E-030
 -6.599999999999999E-007    4.281695469843997E-029
 -6.399999999999999E-007   -2.836779460299033E-028
 -6.199999999999999E-007    1.569170005596140E-027
 -6.000000000000000E-007   -7.311933136464247E-027
 -5.800000000000000E-007    2.879895289160974E-026
 -5.599999999999999E-007   -9.539542893317233E-026
 -5.399999999999999E-007    2.601025462695087E-025
 -5.199999999999999E-007   -5.474460082575432E-025
 -5.000000000000000E-007    6.943873597535791E-025
 -4.800000000000000E-007    5.250744050165190E-025
 -4.599999999999999E-007   -6.151696511183570E-024
 -4.399999999999999E-007    1.991743404057029E-023
 -4.199999999999999E-007   -3.769209091047176E-023
 -4.000000000000000E-007    2.673391473743496E-023
 -3.800000000000000E-007    9.425706684553025E-023
 -3.599999999999999E-007   -4.169539186040232E-022
 -3.399999999999999E-007    8.418438391033826E-022
 -3.199999999999999E-007   -6.595770718003598E-022
 -2.999999999999999E-007   -1.721535543097169E-021
 -2.800000000000000E-007    7.502393720743489E-021
 -2.599999999999999E-007   -1.282432624749302E-020
 -2.399999999999998E-007    3.341354051794162E-021
 -2.200000000000000E-007    3.863300344806477E-020
 -2.000000000000000E-007   -1.012920334171086E-019
 -1.800000000000000E-007    1.047112968699878E-019
 -1.600000000000000E-007    8.807950920607049E-020
 -1.399999999999999E-007   -5.543784819452836E-019
 -1.199999999999999E-007    9.977578224743541E-019
 -9.999999999999989E-008   -3.183301672106893E-019
 -7.999999999999987E-008   -2.728713743353677E-018
 -5.999999999999985E-008    6.269457452138809E-018
 -3.999999999999983E-008   -3.300805257880276E-018
 -2.000000000000002E-008   -1.056554579721122E-017
  0.000000000000000E+000    2.599084060835531E-017
  2.000000000000002E-008   -2.441821072669416E-017
  4.000000000000004E-008   -1.633973644984777E-017
  6.000000000000006E-008    1.151657616324622E-016
  8.000000000000008E-008   -1.806317111660555E-016
  1.000000000000001E-007   -5.486510137057959E-017
  1.200000000000001E-007    5.681961303008641E-016
  1.400000000000001E-007   -5.995634673695633E-016
  1.600000000000002E-007   -3.219849088695140E-016
  1.800000000000002E-007    1.438391196752533E-015
  2.000000000000000E-007   -2.037857015416232E-015
  2.200000000000000E-007    7.068096627737169E-016
  2.400000000000000E-007    5.262238513810057E-015
  2.600000000000001E-007   -9.763454746175125E-015
  2.800000000000001E-007   -6.830410685714151E-016
  3.000000000000001E-007    1.810183140717806E-014
  3.200000000000001E-007   -2.189018903428616E-014
  3.400000000000001E-007    7.209773405548721E-015
  3.600000000000002E-007    4.939778928010322E-014
  3.800000000000002E-007   -9.947369218744165E-014
  4.000000000000000E-007   -3.597108996646206E-014
  4.200000000000000E-007    1.903001743243513E-013
  4.400000000000000E-007   -1.702904997575712E-014
  4.600000000000000E-007    6.531002347923853E-015
  4.800000000000001E-007   -7.336314304796292E-014
  5.000000000000001E-007   -8.974897041234776E-013
  5.200000000000001E-007    5.176704171715168E-013
  5.400000000000001E-007    2.455782104192005E-012
  5.600000000000001E-007   -7.498881939867463E-013
  5.800000000000002E-007   -3.359886275293470E-012
  6.000000000000002E-007   -1.236988145053456E-012
  6.200000000000000E-007    8.658333947840673E-013
  6.400000000000000E-007    6.878627582924563E-012
  6.600000000000000E-007    6.498102463451335E-012
  6.800000000000001E-007   -1.175821859508809E-011
  7.000000000000001E-007   -1.245820636147253E-011
  7.200000000000003E-007    5.973758311249336E-012
  7.400000000000001E-007    7.306049163168805E-013
  7.599999999999999E-007    6.300974878613198E-012
  7.800000000000002E-007    3.072317009913634E-011
  8.000000000000000E-007    1.182256151722223E-011
  8.200000000000002E-007   -1.758981274894579E-011
  8.400000000000000E-007   -6.822966568706853E-011
  8.600000000000002E-007   -1.409343835883669E-010
  8.800000000000000E-007    3.227218464337467E-012
  9.000000000000003E-007    3.008258880236133E-010
  9.200000000000001E-007    3.634868291718686E-010
  9.399999999999999E-007    1.580859424211813E-010
  9.600000000000001E-007   -4.504181311005350E-010
  9.799999999999999E-007   -1.345223318137993E-009
  1.000000000000000E-006   -1.171424217716231E-009
  1.020000000000000E-006    7.465853262539391E-010
  1.040000000000000E-006    3.296978349982564E-009
  1.060000000000000E-006    4.599103200170430E-009
  1.080000000000000E-006    1.467280776074861E-009
  1.100000000000000E-006   -6.977768318795895E-009
  1.120000000000000E-006   -1.443280944208360E-008
  1.140000000000000E-006   -1.216833148534848E-008
  1.160000000000000E-006    5.578515048083143E-009
  1.180000000000000E-006    3.556524838861091E-008
  1.200000000000000E-006    5.324709528074425E-008
  1.220000000000000E-006    2.399824256537716E-008
  1.240000000000000E-006   -6.008831799305829E-008
  1.260000000000000E-006   -1.551081631618470E-007
  1.280000000000000E-006   -1.631052112398244E-007
  1.300000000000000E-006    9.534956594128270E-009
  1.320000000000000E-006    3.264725944738909E-007
  1.340000000000000E-006    5.621662752611111E-007
  1.360000000000000E-006    3.990839520826167E-007
  1.380000000000000E-006   -3.318602280207454E-007
  1.400000000000000E-006   -1.334613018485466E-006
  1.420000000000000E-006   -1.779471324771372E-006
  1.440000000000000E-006   -7.819288001448430E-007
  1.460000000000000E-006    1.788817749799116E-006
  1.480000000000000E-006    4.655121142837238E-006
  1.500000000000000E-006    5.271503821352558E-006
  1.520000000000000E-006    1.331348843436854E-006
  1.540000000000000E-006   -6.916002713804187E-006
  1.560000000000000E-006   -1.512051400758880E-005
  1.580000000000000E-006   -1.571988561801268E-005
  1.600000000000000E-006   -2.406052501251536E-006
  1.620000000000000E-006    2.322222603174455E-005
  1.640000000000000E-006    4.753116003909644E-005
  1.660000000000000E-006    4.817238032071376E-005
  1.680000000000000E-006    7.054985360835505E-006
  1.700000000000000E-006   -7.086292789252300E-005
  1.720000000000000E-006   -1.455264102454076E-004
  1.740000000000000E-006   -1.513289364498946E-004
  1.760000000000000E-006   -3.401082332180863E-005
  1.780000000000000E-006    1.966038182852706E-004
  1.800000000000000E-006    4.306953753365427E-004
  1.820000000000000E-006    4.801183111718068E-004
  1.840000000000000E-006    1.763616160026861E-004
  1.860000000000000E-006   -4.826082897437855E-004
  1.880000000000000E-006   -1.218616264120727E-003
  1.900000000000000E-006   -1.504990906772329E-003
  1.920000000000000E-006   -8.129928619315951E-004
  1.940000000000000E-006    9.801458022349137E-004
  1.960000000000000E-006    3.229576277199336E-003
  1.980000000000000E-006    4.518609202522251E-003
  2.000000000000000E-006    3.246454463745881E-003
  2.020000000000000E-006   -1.273951222219409E-003
  2.040000000000000E-006   -7.730146957895546E-003
  2.060000000000000E-006   -1.256889757755394E-002
  2.080000000000000E-006   -1.128960295722369E-002
  2.100000000000000E-006   -1.188713072674914E-003
  2.120000000000000E-006    1.566464702747393E-002
  2.140000000000000E-006    3.127163883636424E-002
  2.160000000000000E-006    3.417146410781025E-002
  2.180000000000000E-006    1.562267951896627E-002
  2.200000000000000E-006   -2.303612907357765E-002
  2.220000000000000E-006   -6.638982877718240E-002
  2.240000000000000E-006   -8.859589820878101E-002
  2.260000000000000E-006   -6.561236027605200E-002
  2.280000000000000E-006    8.483296598029419E-003
  2.300000000000000E-006    0.110123170598301     
  2.320000000000000E-006    0.189162190918620     
  2.340000000000000E-006    0.189692347532109     
  2.360000000000000E-006    8.213432171640339E-002
  2.380000000000000E-006   -0.109645327245701     
  2.400000000000000E-006   -0.304949161590225     
  2.420000000000000E-006   -0.396653694207730     
  2.440000000000000E-006   -0.307180572236089     
  2.460000000000000E-006   -4.257497464171134E-002
  2.480000000000000E-006    0.290459509362188     
  2.500000000000000E-006    0.526765367174109     
  2.520000000000000E-006    0.534114194689147     
  2.540000000000000E-006    0.306797338436647     
  2.560000000000000E-006   -3.466327099055810E-003
  2.580000000000000E-006   -0.163779810624738     
  2.600000000000000E-006   -2.869175181285089E-002
  2.620000000000000E-006    0.286750874916474     
  2.640000000000001E-006    0.360770423800113     
  2.660000000000000E-006   -0.350878800289720     
  2.680000000000000E-006    -2.10693947380707     
  2.700000000000000E-006    -4.41625047433617     
  2.720000000000000E-006    -5.81851068461471     
  2.740000000000000E-006    -4.22420482138168     
  2.760000000000000E-006     2.05146089968331     
  2.780000000000000E-006     12.7884593336199     
  2.800000000000000E-006     24.5514704508188     
  2.820000000000001E-006     30.4920103744379     
  2.840000000000000E-006     22.0390342334577     
  2.860000000000000E-006    -7.43717713695985     
  2.880000000000000E-006    -57.9981274292961     
  2.900000000000000E-006    -119.585032088784     
  2.920000000000000E-006    -171.882940591249     
  2.940000000000000E-006    -189.021876692713     
  2.960000000000000E-006    -148.444817488162     
  2.980000000000000E-006    -40.7594480022649     
  3.000000000000000E-006     124.263424677549     
  3.020000000000000E-006     320.001622115462     
  3.040000000000000E-006     515.263472940849     
  3.060000000000000E-006     693.828712402620     
  3.080000000000000E-006     874.453123090131     
  3.100000000000000E-006     1122.91534863099     
  3.120000000000000E-006     1549.86666436427     
  3.140000000000000E-006     2293.99632624220     
  3.160000000000000E-006     3497.11994824563     
  3.180000000000000E-006     5282.78903883076     
  3.200000000000000E-006     7750.13271632034     
  3.220000000000000E-006     10988.5889446668     
  3.240000000000000E-006     15109.2712889259     
  3.260000000000001E-006     20279.5308643238     
  3.280000000000000E-006     26743.1596650225     
  3.300000000000000E-006     34812.7396850124     
  3.320000000000000E-006     44830.6904848076     
  3.340000000000000E-006     57106.4140003648     
  3.360000000000000E-006     71844.3881365542     
  3.380000000000000E-006     89077.1411859865     
  3.400000000000000E-006     108612.402995029     
  3.420000000000000E-006     129995.636073509     
  3.440000000000001E-006     152484.422506515     
  3.460000000000000E-006     175028.361436170     
  3.480000000000000E-006     196250.514045331     
  3.500000000000000E-006     214428.653069938     
  3.520000000000000E-006     227480.338479002     
  3.540000000000000E-006     232967.882324494     
  3.560000000000000E-006     228145.628414194     
  3.580000000000000E-006     210074.592933170     
  3.600000000000000E-006     175820.655246986     
  3.620000000000000E-006     122732.644170742     
  3.640000000000000E-006     48774.2245465849     
  3.660000000000000E-006    -47131.9946014756     
  3.680000000000000E-006    -164793.374392548     
  3.700000000000001E-006    -302496.649900362     
  3.720000000000000E-006    -456831.614786629     
  3.740000000000000E-006    -622593.394315404     
  3.760000000000000E-006    -792766.266803120     
  3.780000000000000E-006    -958602.958491916     
  3.800000000000000E-006    -1109839.36605532     
  3.820000000000001E-006    -1235092.94078992     
  3.840000000000001E-006    -1322495.37342668     
  3.860000000000000E-006    -1360564.57659886     
  3.880000000000000E-006    -1339268.62305579     
  3.900000000000000E-006    -1251135.76538674     
  3.920000000000000E-006    -1092232.13646937     
  3.940000000000000E-006    -862836.231473259     
  3.959999999999999E-006    -567709.515225003     
  3.980000000000001E-006    -216014.545660008     
  4.000000000000001E-006     179008.050723936     
  4.020000000000000E-006     600490.698419481     
  4.040000000000000E-006     1028511.50728969     
  4.060000000000000E-006     1440901.34824061     
  4.080000000000000E-006     1814445.26826461     
  4.100000000000000E-006     2126532.68072738     
  4.120000000000000E-006     2357101.34227477     
  4.139999999999999E-006     2490537.80196942     
  4.160000000000001E-006     2517112.30184592     
  4.180000000000001E-006     2433691.66300462     
  4.200000000000000E-006     2243746.47231857     
  4.220000000000000E-006     1956845.75196094     
  4.240000000000000E-006     1587901.65493036     
  4.260000000000000E-006     1156294.54372087     
  4.280000000000000E-006     684801.031866320     
  4.299999999999999E-006     198211.342313134     
  4.320000000000001E-006    -278405.632781634     
  4.340000000000001E-006    -721616.515134529     
  4.360000000000001E-006    -1111337.67150469     
  4.380000000000000E-006    -1432069.30876641     
  4.400000000000000E-006    -1673543.25332366     
  4.420000000000000E-006    -1830858.23595695     
  4.440000000000000E-006    -1904237.02121447     
  4.460000000000000E-006    -1898447.37928695     
  4.479999999999999E-006    -1821868.75614572     
  4.500000000000001E-006    -1685272.81521654     
  4.520000000000001E-006    -1500531.07481955     
  4.540000000000001E-006    -1279610.31503308     
  4.560000000000000E-006    -1034101.35538851     
  4.580000000000000E-006    -775141.012528093     
  4.600000000000000E-006    -513335.541763879     
  4.620000000000000E-006    -258467.356242445     
  4.640000000000000E-006    -19142.6485524777     
  4.659999999999999E-006     197237.833495456     
  4.680000000000001E-006     384008.592970712     
  4.700000000000001E-006     534665.102422946     
  4.720000000000001E-006     642891.541273254     
  4.740000000000000E-006     703605.731696182     
  4.760000000000000E-006     714684.985377435     
  4.780000000000000E-006     678306.672617977     
  4.800000000000000E-006     600923.896640206     
  4.820000000000000E-006     492008.549536429     
  4.839999999999999E-006     362711.067010307     
  4.860000000000001E-006     225470.741493753     
  4.880000000000001E-006     94424.5854069442     
  4.900000000000001E-006    -14732.8438968962     
  4.920000000000000E-006    -86737.0141254581     
  4.940000000000000E-006    -110447.601402680     
  4.960000000000000E-006    -82514.5153994180     
  4.980000000000000E-006    -8845.58486147462     
  5.000000000000000E-006     97042.6120286288     
  5.019999999999999E-006     217500.815548302     
  5.040000000000001E-006     333661.582747295     
  5.060000000000001E-006     426634.344854015     
  5.080000000000000E-006     478029.051535895     
  5.100000000000000E-006     471769.806257496     
  5.120000000000000E-006     397880.063960617     
  5.140000000000000E-006     256657.290241244     
  5.160000000000000E-006     60640.7732120618     
  5.180000000000000E-006    -167069.915684886     
  5.199999999999999E-006    -397355.982951844     
  5.220000000000001E-006    -600021.023023627     
  5.240000000000001E-006    -747058.537440582     
  5.260000000000000E-006    -814534.085460679     
  5.280000000000000E-006    -785065.887600250     
  5.300000000000000E-006    -651822.614290781     
  5.320000000000000E-006    -422394.212200985     
  5.340000000000000E-006    -119726.335162402     
  5.360000000000000E-006     221067.153132003     
  5.380000000000001E-006     558484.580189724     
  5.400000000000001E-006     850426.221494664     
  5.420000000000001E-006     1058463.68472364     
  5.440000000000000E-006     1150895.57275267     
  5.460000000000000E-006     1106267.98748603     
  5.480000000000000E-006     918301.696645519     
  5.500000000000000E-006     600350.141512406     
  5.520000000000000E-006     185813.210472245     
  5.539999999999999E-006    -277098.999436743     
  5.560000000000001E-006    -733819.687364858     
  5.580000000000001E-006    -1130854.24845508     
  5.600000000000001E-006    -1420303.43229008     
  5.620000000000000E-006    -1562959.82946853     
  5.640000000000000E-006    -1532136.39256450     
  5.660000000000000E-006    -1318820.01573116     
  5.680000000000000E-006    -936598.923227075     
  5.700000000000000E-006    -423085.379704518     
  5.719999999999999E-006     164705.657442094     
  5.740000000000001E-006     759867.775616172     
  5.760000000000001E-006     1295476.33455691     
  5.780000000000001E-006     1711144.39194923     
  5.800000000000000E-006     1956946.47613813     
  5.820000000000000E-006     1997725.54532226     
  5.840000000000000E-006     1818458.32371365     
  5.860000000000000E-006     1428550.70576426     
  5.880000000000000E-006     862943.035518804     
  5.899999999999999E-006     179056.356480475     
  5.920000000000001E-006    -550355.360933644     
  5.940000000000001E-006    -1246758.18795093     
  5.960000000000001E-006    -1834845.41373224     
  5.980000000000000E-006    -2249295.12535573     
  6.000000000000000E-006    -2440454.16810455     
  6.020000000000000E-006    -2380362.71280477     
  6.040000000000000E-006    -2067489.20577484     
  6.060000000000000E-006    -1527581.83002280     
  6.079999999999999E-006    -810826.630037811     
  6.100000000000001E-006     12895.1309436174     
  6.120000000000001E-006     860412.643574640     
  6.140000000000001E-006     1643923.15379104     
  6.160000000000000E-006     2280850.11071525     
  6.180000000000000E-006     2702694.99834642     
  6.200000000000000E-006     2862009.33768583     
  6.220000000000000E-006     2737571.09220871     
  6.240000000000000E-006     2336670.86812027     
  6.260000000000001E-006     1693700.98746629     
  6.280000000000001E-006     866620.831601152     
  6.300000000000001E-006    -67180.3576766304     
  6.320000000000000E-006    -1016866.21194648     
  6.340000000000000E-006    -1887535.32886936     
  6.360000000000000E-006    -2591361.49051906     
  6.380000000000000E-006    -3057004.63736120     
  6.400000000000000E-006    -3235984.02461023     
  6.420000000000000E-006    -3106987.91940457     
  6.439999999999999E-006    -2678076.82641150     
  6.459999999999999E-006    -1985847.06895013     
  6.480000000000001E-006    -1091999.34545029     
  6.500000000000000E-006    -78244.7569622895     
  6.520000000000000E-006     960792.849203304     
  6.540000000000000E-006     1926859.70588794     
  6.560000000000000E-006     2727912.49895340     
  6.580000000000000E-006     3286581.10153726     
  6.599999999999999E-006     3547178.33466248     
  6.619999999999999E-006     3481790.20686907     
  6.639999999999999E-006     3093904.33270928     
  6.660000000000001E-006     2417521.03139367     
  6.680000000000000E-006     1512467.20264090     
  6.700000000000000E-006     458361.135633226     
  6.720000000000000E-006    -651655.477112364     
  6.740000000000000E-006    -1717965.45204274     
  6.760000000000000E-006    -2642893.95783620     
  6.779999999999999E-006    -3340136.40742270     
  6.799999999999999E-006    -3743972.00952012     
  6.819999999999999E-006    -3816417.67910510     
  6.840000000000001E-006    -3550343.22701585     
  6.860000000000000E-006    -2968277.64196415     
  6.880000000000000E-006    -2119094.25239521     
  6.900000000000000E-006    -1074446.65194208     
  6.920000000000000E-006     75683.9274681765     
  6.940000000000000E-006     1230042.47445877     
  6.959999999999999E-006     2286069.49827823     
  6.979999999999999E-006     3150654.45598561     
  6.999999999999999E-006     3748679.78746905     
  7.020000000000001E-006     4028254.36573738     
  7.040000000000000E-006     3963724.63904077     
  7.060000000000000E-006     3557836.40171705     
  7.080000000000000E-006     2842910.57278854     
  7.100000000000000E-006     1879268.15339195     
  7.120000000000000E-006     749671.876387311     
  7.139999999999999E-006    -449252.456796461     
  7.159999999999999E-006    -1616429.75834564     
  7.179999999999999E-006    -2654609.97132787     
  7.200000000000001E-006    -3476762.50653811     
  7.220000000000000E-006    -4011982.41123866     
  7.240000000000000E-006    -4212484.33875117     
  7.260000000000000E-006    -4060164.96471342     
  7.280000000000000E-006    -3568937.02256695     
  7.300000000000000E-006    -2781218.21796486     
  7.319999999999999E-006    -1761553.66300661     
  7.339999999999999E-006    -591407.661416958     
  7.359999999999999E-006     634916.246138794     
  7.380000000000000E-006     1816097.53795957     
  7.400000000000000E-006     2852451.33820281     
  7.420000000000000E-006     3656221.54299595     
  7.440000000000000E-006     4161315.72092627     
  7.460000000000000E-006     4329316.10201312     
  7.480000000000000E-006     4149781.85182907     
  7.499999999999999E-006     3637089.69973405     
  7.519999999999999E-006     2828722.18313008     
  7.540000000000001E-006     1786291.52143163     
  7.560000000000000E-006     594312.702099522     
  7.580000000000000E-006    -647723.488172453     
  7.600000000000000E-006    -1837389.50820547     
  7.620000000000000E-006    -2879799.45629851     
  7.640000000000000E-006    -3694389.58446892     
  7.660000000000000E-006    -4218967.98573698     
  7.679999999999999E-006    -4412421.87217017     
  7.699999999999999E-006    -4257480.87772859     
  7.720000000000001E-006    -3764084.38163743     
  7.740000000000000E-006    -2971305.67041844     
  7.760000000000000E-006    -1944197.55025576     
  7.780000000000000E-006    -765428.914676731     
  7.800000000000000E-006     473396.647084303     
  7.820000000000000E-006     1677346.22310221     
  7.839999999999999E-006     2752975.10143320     
  7.859999999999999E-006     3615289.41385426     
  7.879999999999999E-006     4196005.88139691     
  7.900000000000001E-006     4450339.49489158     
  7.920000000000000E-006     4360491.79444556     
  7.940000000000000E-006     3935576.31147363     
  7.960000000000000E-006     3209038.16618548     
  7.980000000000000E-006     2235564.21668351     
  8.000000000000000E-006     1088630.45680884     
  8.019999999999999E-006    -143115.080741238     
  8.039999999999999E-006    -1363237.49523329     
  8.059999999999999E-006    -2477321.54856160     
  8.080000000000001E-006    -3401249.40960141     
  8.100000000000000E-006    -4066619.78262981     
  8.120000000000000E-006    -4424462.26874173     
  8.140000000000000E-006    -4447986.37842937     
  8.160000000000000E-006    -4134640.81056122     
  8.180000000000000E-006    -3507623.96843152     
  8.199999999999999E-006    -2615637.42666152     
  8.219999999999999E-006    -1528645.21264222     
  8.239999999999999E-006    -329882.652415329     
  8.260000000000001E-006     891835.092131136     
  8.280000000000000E-006     2046904.67363480     
  8.300000000000000E-006     3049406.56294162     
  8.320000000000000E-006     3823799.48117566     
  8.340000000000000E-006     4311874.31821387     
  8.360000000000000E-006     4477488.55191998     
  8.379999999999999E-006     4309318.76749548     
  8.399999999999999E-006     3821918.74948950     
  8.419999999999999E-006     3053769.70608631     
  8.440000000000001E-006     2062565.26849879     
  8.460000000000000E-006     920573.124801268     
  8.480000000000000E-006    -288826.659169825     
  8.500000000000000E-006    -1476062.03113986     
  8.520000000000000E-006    -2552925.60743680     
  8.540000000000000E-006    -3440050.69007425     
  8.559999999999999E-006    -4072601.11158980     
  8.579999999999999E-006    -4405212.10585974     
  8.600000000000001E-006    -4415753.64695248     
  8.620000000000000E-006    -4105906.43103532     
  8.640000000000000E-006    -3499171.44027026     
  8.660000000000000E-006    -2639108.40319593     
  8.680000000000000E-006    -1587969.53974276     
  8.700000000000000E-006    -423023.249900026     
  8.720000000000000E-006     769947.029072267     
  8.739999999999999E-006     1903671.91794922     
  8.759999999999999E-006     2896115.05160808     
  8.780000000000001E-006     3677118.10373304     
  8.800000000000000E-006     4193067.93452727     
  8.820000000000000E-006     4408385.60236086     
  8.840000000000000E-006     4306750.57879828     
  8.860000000000000E-006     3894455.85222399     
  8.880000000000000E-006     3202596.85989129     
  8.899999999999999E-006     2283902.51779172     
  8.919999999999999E-006     1206097.78097667     
  8.939999999999999E-006     46328.7096988211     
  8.960000000000001E-006    -1113322.89540216     
  8.980000000000000E-006    -2191327.26927697     
  9.000000000000000E-006    -3112167.12371305     
  9.020000000000000E-006    -3810483.19720159     
  9.040000000000000E-006    -4235795.85564159     
  9.060000000000000E-006    -4358433.38486061     
  9.079999999999999E-006    -4172604.48381781     
  9.099999999999999E-006    -3694080.88924125     
  9.119999999999999E-006    -2956789.57269152     
  9.140000000000001E-006    -2012227.45089349     
  9.160000000000000E-006    -928272.930579920     
  9.180000000000000E-006     216609.121909319     
  9.200000000000000E-006     1341320.53409690     
  9.220000000000000E-006     2368133.72268511     
  9.240000000000000E-006     3226794.25775256     
  9.259999999999999E-006     3858585.17002070     
  9.279999999999999E-006     4220020.56679845     
  9.299999999999999E-006     4285407.17255354     
  9.320000000000001E-006     4049658.90764596     
  9.340000000000000E-006     3530966.35788281     
  9.360000000000000E-006     2769248.59963239     
  9.380000000000000E-006     1820037.16003346     
  9.400000000000000E-006     748872.714331801     
  9.420000000000000E-006    -371516.063373497     
  9.439999999999999E-006    -1463974.55237708     
  9.459999999999999E-006    -2452036.38744004     
  9.479999999999999E-006    -3266639.52125168     
  9.500000000000001E-006    -3851992.48582678     
  9.520000000000000E-006    -4169532.64106470     
  9.540000000000000E-006    -4199935.25399851     
  9.560000000000000E-006    -3942640.83976523     
  9.580000000000000E-006    -3414885.46720930     
  9.600000000000000E-006    -2652633.59344342     
  9.619999999999999E-006    -1710246.73506502     
  9.639999999999999E-006    -655357.739769589     
  9.660000000000001E-006     438597.925449694     
  9.680000000000000E-006     1498281.91813877     
  9.700000000000000E-006     2453719.31993987     
  9.720000000000000E-006     3240689.18184919     
  9.740000000000000E-006     3804744.21129444     
  9.760000000000000E-006     4106284.79745370     
  9.780000000000000E-006     4124874.85639899     
  9.799999999999999E-006     3861873.52291876     
  9.819999999999999E-006     3339021.33518102     
  9.840000000000001E-006     2593565.33048194     
  9.860000000000000E-006     1675056.50173879     
  9.880000000000000E-006     644529.829574953     
  9.900000000000000E-006    -427737.960667462     
  9.920000000000000E-006    -1467210.74817227     
  9.940000000000000E-006    -2402122.59838416     
  9.960000000000000E-006    -3170095.16967472     
  9.979999999999999E-006    -3721764.72329276     
  9.999999999999999E-006    -4022356.95556057     
  1.002000000000000E-005    -4052431.28870683     
  1.004000000000000E-005    -3808802.73495000     
  1.006000000000000E-005    -3307366.66317590     
  1.008000000000000E-005    -2584310.58898527     
  1.010000000000000E-005    -1691644.99933096     
  1.012000000000000E-005    -690812.715117023     
  1.014000000000000E-005     351765.481872086     
  1.016000000000000E-005     1367874.37180538     
  1.018000000000000E-005     2290300.14274224     
  1.020000000000000E-005     3056881.33925960     
  1.022000000000000E-005     3615810.43568190     
  1.024000000000000E-005     3929847.56723993     
  1.026000000000000E-005     3979530.60487947     
  1.028000000000000E-005     3764372.05914584     
  1.030000000000000E-005     3300525.88717466     
  1.032000000000000E-005     2618849.71122869     
  1.034000000000000E-005     1764798.14232397     
  1.036000000000000E-005     796206.766343183     
  1.038000000000000E-005    -221187.181157174     
  1.040000000000000E-005    -1218984.29749621     
  1.042000000000000E-005    -2131588.56410919     
  1.044000000000000E-005    -2899842.68840952     
  1.046000000000000E-005    -3473727.52905913     
  1.048000000000000E-005    -3815852.54443978     
  1.050000000000000E-005    -3904037.37354098     
  1.052000000000000E-005    -3733298.09401396     
  1.054000000000000E-005    -3317068.28763810     