 -1.200000000000000E-006    0.000000000000000E+000
 -1.180000000000000E-006    0.000000000000000E+000
 -1.160000000000000E-006    0.000000000000000E+000
 -1.140000000000000E-006    0.000000000000000E+000
 -1.120000000000000E-006    0.000000000000000E+000
 -1.100000000000000E-006    0.000000000000000E+000
 -1.080000000000000E-006    0.000000000000000E+000
 -1.060000000000000E-006    0.000000000000000E+000
 -1.040000000000000E-006    0.000000000000000E+000
 -1.020000000000000E-006    0.000000000000000E+000
 -1.000000000000000E-006    0.000000000000000E+000
 -9.799999999999999E-007    0.000000000000000E+000
 -9.599999999999999E-007    0.000000000000000E+000
 -9.399999999999999E-007    0.000000000000000E+000
 -9.199999999999999E-007    0.000000000000000E+000
 -9.000000000000000E-007    0.000000000000000E+000
 -8.799999999999999E-007    0.000000000000000E+000
 -8.599999999999999E-007    0.000000000000000E+000
 -8.400000000000000E-007    0.000000000000000E+000
 -8.200000000000000E-007    0.000000000000000E+000
 -8.000000000000000E-007    0.000000000000000E+000
 -7.799999999999999E-007    0.000000000000000E+000
 -7.599999999999999E-007    0.000000000000000E+000
 -7.399999999999999E-007    0.000000000000000E+000
 -7.199999999999999E-007    0.000000000000000E+000
 -7.000000000000000E-007    0.000000000000000E+000
 -6.799999999999999E-007    0.000000000000000E+000
 -6.599999999999999E-007    0.000000000000000E+000
 -6.399999999999999E-007    0.000000000000000E+000
 -6.199999999999999E-007    0.000000000000000E+000
 -6.000000000000000E-007    0.000000000000000E+000
 -5.800000000000000E-007    0.000000000000000E+000
 -5.599999999999999E-007    0.000000000000000E+000
 -5.399999999999999E-007    0.000000000000000E+000
 -5.199999999999999E-007    0.000000000000000E+000
 -5.000000000000000E-007    0.000000000000000E+000
 -4.800000000000000E-007    0.000000000000000E+000
 -4.599999999999999E-007    0.000000000000000E+000
 -4.399999999999999E-007    0.000000000000000E+000
 -4.199999999999999E-007    0.000000000000000E+000
 -4.000000000000000E-007    0.000000000000000E+000
 -3.800000000000000E-007    0.000000000000000E+000
 -3.599999999999999E-007    0.000000000000000E+000
 -3.399999999999999E-007    0.000000000000000E+000
 -3.199999999999999E-007    0.000000000000000E+000
 -2.999999999999999E-007    0.000000000000000E+000
 -2.800000000000000E-007    0.000000000000000E+000
 -2.599999999999999E-007    0.000000000000000E+000
 -2.399999999999998E-007    0.000000000000000E+000
 -2.200000000000000E-007    0.000000000000000E+000
 -2.000000000000000E-007    0.000000000000000E+000
 -1.800000000000000E-007    0.000000000000000E+000
 -1.600000000000000E-007    0.000000000000000E+000
 -1.399999999999999E-007    0.000000000000000E+000
 -1.199999999999999E-007    0.000000000000000E+000
 -9.999999999999989E-008    0.000000000000000E+000
 -7.999999999999987E-008    0.000000000000000E+000
 -5.999999999999985E-008    0.000000000000000E+000
 -3.999999999999983E-008    0.000000000000000E+000
 -2.000000000000002E-008    0.000000000000000E+000
  0.000000000000000E+000    0.000000000000000E+000
  2.000000000000002E-008    0.000000000000000E+000
  4.000000000000004E-008    0.000000000000000E+000
  6.000000000000006E-008    0.000000000000000E+000
  8.000000000000008E-008    0.000000000000000E+000
  1.000000000000001E-007    0.000000000000000E+000
  1.200000000000001E-007    0.000000000000000E+000
  1.400000000000001E-007    0.000000000000000E+000
  1.600000000000002E-007    0.000000000000000E+000
  1.800000000000002E-007    0.000000000000000E+000
  2.000000000000000E-007    0.000000000000000E+000
  2.200000000000000E-007    0.000000000000000E+000
  2.400000000000000E-007    0.000000000000000E+000
  2.600000000000001E-007    0.000000000000000E+000
  2.800000000000001E-007    0.000000000000000E+000
  3.000000000000001E-007    0.000000000000000E+000
  3.200000000000001E-007    0.000000000000000E+000
  3.400000000000001E-007    0.000000000000000E+000
  3.600000000000002E-007    0.000000000000000E+000
  3.800000000000002E-007    0.000000000000000E+000
  4.000000000000000E-007    0.000000000000000E+000
  4.200000000000000E-007    0.000000000000000E+000
  4.400000000000000E-007    0.000000000000000E+000
  4.600000000000000E-007    0.000000000000000E+000
  4.800000000000001E-007    0.000000000000000E+000
  5.000000000000001E-007    0.000000000000000E+000
  5.200000000000001E-007    0.000000000000000E+000
  5.400000000000001E-007    0.000000000000000E+000
  5.600000000000001E-007    0.000000000000000E+000
  5.800000000000002E-007    0.000000000000000E+000
  6.000000000000002E-007    0.000000000000000E+000
  6.200000000000000E-007    0.000000000000000E+000
  6.400000000000000E-007    0.000000000000000E+000
  6.600000000000000E-007    0.000000000000000E+000
  6.800000000000001E-007    0.000000000000000E+000
  7.000000000000001E-007    0.000000000000000E+000
  7.200000000000003E-007    0.000000000000000E+000
  7.400000000000001E-007    0.000000000000000E+000
  7.599999999999999E-007    0.000000000000000E+000
  7.800000000000002E-007    0.000000000000000E+000
  8.000000000000000E-007    0.000000000000000E+000
  8.200000000000002E-007    0.000000000000000E+000
  8.400000000000000E-007    0.000000000000000E+000
  8.600000000000002E-007    0.000000000000000E+000
  8.800000000000000E-007    0.000000000000000E+000
  9.000000000000003E-007    0.000000000000000E+000
  9.200000000000001E-007    0.000000000000000E+000
  9.399999999999999E-007    0.000000000000000E+000
  9.600000000000001E-007    0.000000000000000E+000
  9.799999999999999E-007    0.000000000000000E+000
  1.000000000000000E-006    0.000000000000000E+000
  1.020000000000000E-006    0.000000000000000E+000
  1.040000000000000E-006    0.000000000000000E+000
  1.060000000000000E-006    0.000000000000000E+000
  1.080000000000000E-006    0.000000000000000E+000
  1.100000000000000E-006    0.000000000000000E+000
  1.120000000000000E-006    0.000000000000000E+000
  1.140000000000000E-006    0.000000000000000E+000
  1.160000000000000E-006    0.000000000000000E+000
  1.180000000000000E-006    0.000000000000000E+000
  1.200000000000000E-006    0.000000000000000E+000
  1.220000000000000E-006    0.000000000000000E+000
  1.240000000000000E-006    0.000000000000000E+000
  1.260000000000000E-006    0.000000000000000E+000
  1.280000000000000E-006    0.000000000000000E+000
  1.300000000000000E-006    0.000000000000000E+000
  1.320000000000000E-006    0.000000000000000E+000
  1.340000000000000E-006    0.000000000000000E+000
  1.360000000000000E-006    0.000000000000000E+000
  1.380000000000000E-006    0.000000000000000E+000
  1.400000000000000E-006    0.000000000000000E+000
  1.420000000000000E-006    0.000000000000000E+000
  1.440000000000000E-006    0.000000000000000E+000
  1.460000000000000E-006    0.000000000000000E+000
  1.480000000000000E-006    0.000000000000000E+000
  1.500000000000000E-006    0.000000000000000E+000
  1.520000000000000E-006    0.000000000000000E+000
  1.540000000000000E-006    0.000000000000000E+000
  1.560000000000000E-006    0.000000000000000E+000
  1.580000000000000E-006    0.000000000000000E+000
  1.600000000000000E-006    0.000000000000000E+000
  1.620000000000000E-006    0.000000000000000E+000
  1.640000000000000E-006    0.000000000000000E+000
  1.660000000000000E-006    0.000000000000000E+000
  1.680000000000000E-006    0.000000000000000E+000
  1.700000000000000E-006    0.000000000000000E+000
  1.720000000000000E-006    0.000000000000000E+000
  1.740000000000000E-006    0.000000000000000E+000
  1.760000000000000E-006    0.000000000000000E+000
  1.780000000000000E-006    0.000000000000000E+000
  1.800000000000000E-006    0.000000000000000E+000
  1.820000000000000E-006    0.000000000000000E+000
  1.840000000000000E-006    0.000000000000000E+000
  1.860000000000000E-006    0.000000000000000E+000
  1.880000000000000E-006    0.000000000000000E+000
  1.900000000000000E-006    0.000000000000000E+000
  1.920000000000000E-006    0.000000000000000E+000
  1.940000000000000E-006    0.000000000000000E+000
  1.960000000000000E-006    0.000000000000000E+000
  1.980000000000000E-006    0.000000000000000E+000
  2.000000000000000E-006    0.000000000000000E+000
  2.020000000000000E-006    0.000000000000000E+000
  2.040000000000000E-006    0.000000000000000E+000
  2.060000000000000E-006    0.000000000000000E+000
  2.080000000000000E-006    0.000000000000000E+000
  2.100000000000000E-006    0.000000000000000E+000
  2.120000000000000E-006    0.000000000000000E+000
  2.140000000000000E-006    0.000000000000000E+000
  2.160000000000000E-006    0.000000000000000E+000
  2.180000000000000E-006    0.000000000000000E+000
  2.200000000000000E-006    0.000000000000000E+000
  2.220000000000000E-006    0.000000000000000E+000
  2.240000000000000E-006    0.000000000000000E+000
  2.260000000000000E-006    0.000000000000000E+000
  2.280000000000000E-006    0.000000000000000E+000
  2.300000000000000E-006    0.000000000000000E+000
  2.320000000000000E-006    0.000000000000000E+000
  2.340000000000000E-006    0.000000000000000E+000
  2.360000000000000E-006    0.000000000000000E+000
  2.380000000000000E-006    0.000000000000000E+000
  2.400000000000000E-006    0.000000000000000E+000
  2.420000000000000E-006    0.000000000000000E+000
  2.440000000000000E-006    0.000000000000000E+000
  2.460000000000000E-006    0.000000000000000E+000
  2.480000000000000E-006    0.000000000000000E+000
  2.500000000000000E-006    0.000000000000000E+000
  2.520000000000000E-006    0.000000000000000E+000
  2.540000000000000E-006    0.000000000000000E+000
  2.560000000000000E-006    0.000000000000000E+000
  2.580000000000000E-006    0.000000000000000E+000
  2.600000000000000E-006    0.000000000000000E+000
  2.620000000000000E-006    0.000000000000000E+000
  2.640000000000001E-006    0.000000000000000E+000
  2.660000000000000E-006    0.000000000000000E+000
  2.680000000000000E-006    0.000000000000000E+000
  2.700000000000000E-006    0.000000000000000E+000
  2.720000000000000E-006    0.000000000000000E+000
  2.740000000000000E-006    0.000000000000000E+000
  2.760000000000000E-006    0.000000000000000E+000
  2.780000000000000E-006    0.000000000000000E+000
  2.800000000000000E-006    0.000000000000000E+000
  2.820000000000001E-006    0.000000000000000E+000
  2.840000000000000E-006    0.000000000000000E+000
  2.860000000000000E-006    0.000000000000000E+000
  2.880000000000000E-006    0.000000000000000E+000
  2.900000000000000E-006    0.000000000000000E+000
  2.920000000000000E-006    0.000000000000000E+000
  2.940000000000000E-006    0.000000000000000E+000
  2.960000000000000E-006    0.000000000000000E+000
  2.980000000000000E-006    0.000000000000000E+000
  3.000000000000000E-006    0.000000000000000E+000
  3.020000000000000E-006    0.000000000000000E+000
  3.040000000000000E-006    0.000000000000000E+000
  3.060000000000000E-006    0.000000000000000E+000
  3.080000000000000E-006    0.000000000000000E+000
  3.100000000000000E-006    0.000000000000000E+000
  3.120000000000000E-006    0.000000000000000E+000
  3.140000000000000E-006    0.000000000000000E+000
  3.160000000000000E-006    0.000000000000000E+000
  3.180000000000000E-006    0.000000000000000E+000
  3.200000000000000E-006    0.000000000000000E+000
  3.220000000000000E-006    0.000000000000000E+000
  3.240000000000000E-006    0.000000000000000E+000
  3.260000000000001E-006    0.000000000000000E+000
  3.280000000000000E-006    0.000000000000000E+000
  3.300000000000000E-006    0.000000000000000E+000
  3.320000000000000E-006    0.000000000000000E+000
  3.340000000000000E-006    0.000000000000000E+000
  3.360000000000000E-006    0.000000000000000E+000
  3.380000000000000E-006    0.000000000000000E+000
  3.400000000000000E-006    0.000000000000000E+000
  3.420000000000000E-006    0.000000000000000E+000
  3.440000000000001E-006    0.000000000000000E+000
  3.460000000000000E-006    0.000000000000000E+000
  3.480000000000000E-006    0.000000000000000E+000
  3.500000000000000E-006    0.000000000000000E+000
  3.520000000000000E-006    0.000000000000000E+000
  3.540000000000000E-006    0.000000000000000E+000
  3.560000000000000E-006    0.000000000000000E+000
  3.580000000000000E-006    0.000000000000000E+000
  3.600000000000000E-006    0.000000000000000E+000
  3.620000000000000E-006    0.000000000000000E+000
  3.640000000000000E-006    0.000000000000000E+000
  3.660000000000000E-006    0.000000000000000E+000
  3.680000000000000E-006    0.000000000000000E+000
  3.700000000000001E-006    0.000000000000000E+000
  3.720000000000000E-006    0.000000000000000E+000
  3.740000000000000E-006    0.000000000000000E+000
  3.760000000000000E-006    0.000000000000000E+000
  3.780000000000000E-006    0.000000000000000E+000
  3.800000000000000E-006    0.000000000000000E+000
  3.820000000000001E-006    0.000000000000000E+000
  3.840000000000001E-006    0.000000000000000E+000
  3.860000000000000E-006    0.000000000000000E+000
  3.880000000000000E-006    0.000000000000000E+000
  3.900000000000000E-006    0.000000000000000E+000
  3.920000000000000E-006    0.000000000000000E+000
  3.940000000000000E-006    0.000000000000000E+000
  3.959999999999999E-006    0.000000000000000E+000
  3.980000000000001E-006    0.000000000000000E+000
  4.000000000000001E-006    0.000000000000000E+000
  4.020000000000000E-006    0.000000000000000E+000
  4.040000000000000E-006    0.000000000000000E+000
  4.060000000000000E-006    0.000000000000000E+000
  4.080000000000000E-006    0.000000000000000E+000
  4.100000000000000E-006    0.000000000000000E+000
  4.120000000000000E-006    0.000000000000000E+000
  4.139999999999999E-006    0.000000000000000E+000
  4.160000000000001E-006    0.000000000000000E+000
  4.180000000000001E-006    0.000000000000000E+000
  4.200000000000000E-006    0.000000000000000E+000
  4.220000000000000E-006    0.000000000000000E+000
  4.240000000000000E-006    0.000000000000000E+000
  4.260000000000000E-006    0.000000000000000E+000
  4.280000000000000E-006    0.000000000000000E+000
  4.299999999999999E-006    0.000000000000000E+000
  4.320000000000001E-006    0.000000000000000E+000
  4.340000000000001E-006    0.000000000000000E+000
  4.360000000000001E-006    0.000000000000000E+000
  4.380000000000000E-006    0.000000000000000E+000
  4.400000000000000E-006    0.000000000000000E+000
  4.420000000000000E-006    0.000000000000000E+000
  4.440000000000000E-006    0.000000000000000E+000
  4.460000000000000E-006    0.000000000000000E+000
  4.479999999999999E-006    0.000000000000000E+000
  4.500000000000001E-006    0.000000000000000E+000
  4.520000000000001E-006    0.000000000000000E+000
  4.540000000000001E-006    0.000000000000000E+000
  4.560000000000000E-006    0.000000000000000E+000
  4.580000000000000E-006    0.000000000000000E+000
  4.600000000000000E-006    0.000000000000000E+000
  4.620000000000000E-006    0.000000000000000E+000
  4.640000000000000E-006    0.000000000000000E+000
  4.659999999999999E-006    0.000000000000000E+000
  4.680000000000001E-006    0.000000000000000E+000
  4.700000000000001E-006    0.000000000000000E+000
  4.720000000000001E-006    0.000000000000000E+000
  4.740000000000000E-006    0.000000000000000E+000
  4.760000000000000E-006    0.000000000000000E+000
  4.780000000000000E-006    0.000000000000000E+000
  4.800000000000000E-006    0.000000000000000E+000
  4.820000000000000E-006    0.000000000000000E+000
  4.839999999999999E-006    0.000000000000000E+000
  4.860000000000001E-006    0.000000000000000E+000
  4.880000000000001E-006    0.000000000000000E+000
  4.900000000000001E-006    0.000000000000000E+000
  4.920000000000000E-006    0.000000000000000E+000
  4.940000000000000E-006    0.000000000000000E+000
  4.960000000000000E-006    0.000000000000000E+000
  4.980000000000000E-006    0.000000000000000E+000
  5.000000000000000E-006    0.000000000000000E+000
  5.019999999999999E-006    0.000000000000000E+000
  5.040000000000001E-006    0.000000000000000E+000
  5.060000000000001E-006    0.000000000000000E+000
  5.080000000000000E-006    0.000000000000000E+000
  5.100000000000000E-006    0.000000000000000E+000
  5.120000000000000E-006    0.000000000000000E+000
  5.140000000000000E-006    0.000000000000000E+000
  5.160000000000000E-006    0.000000000000000E+000
  5.180000000000000E-006    0.000000000000000E+000
  5.199999999999999E-006    0.000000000000000E+000
  5.220000000000001E-006    0.000000000000000E+000
  5.240000000000001E-006    0.000000000000000E+000
  5.260000000000000E-006    0.000000000000000E+000
  5.280000000000000E-006    0.000000000000000E+000
  5.300000000000000E-006    0.000000000000000E+000
  5.320000000000000E-006    0.000000000000000E+000
  5.340000000000000E-006    0.000000000000000E+000
  5.360000000000000E-006    0.000000000000000E+000
  5.380000000000001E-006    0.000000000000000E+000
  5.400000000000001E-006    0.000000000000000E+000
  5.420000000000001E-006    0.000000000000000E+000
  5.440000000000000E-006    0.000000000000000E+000
  5.460000000000000E-006    0.000000000000000E+000
  5.480000000000000E-006    0.000000000000000E+000
  5.500000000000000E-006    0.000000000000000E+000
  5.520000000000000E-006    0.000000000000000E+000
  5.539999999999999E-006    0.000000000000000E+000
  5.560000000000001E-006    0.000000000000000E+000
  5.580000000000001E-006    0.000000000000000E+000
  5.600000000000001E-006    0.000000000000000E+000
  5.620000000000000E-006    0.000000000000000E+000
  5.640000000000000E-006    0.000000000000000E+000
  5.660000000000000E-006    0.000000000000000E+000
  5.680000000000000E-006    0.000000000000000E+000
  5.700000000000000E-006    0.000000000000000E+000
  5.719999999999999E-006    0.000000000000000E+000
  5.740000000000001E-006    0.000000000000000E+000
  5.760000000000001E-006    0.000000000000000E+000
  5.780000000000001E-006    0.000000000000000E+000
  5.800000000000000E-006    0.000000000000000E+000
  5.820000000000000E-006    0.000000000000000E+000
  5.840000000000000E-006    0.000000000000000E+000
  5.860000000000000E-006    0.000000000000000E+000
  5.880000000000000E-006    0.000000000000000E+000
  5.899999999999999E-006    0.000000000000000E+000
  5.920000000000001E-006    0.000000000000000E+000
  5.940000000000001E-006    0.000000000000000E+000
  5.960000000000001E-006    0.000000000000000E+000
  5.980000000000000E-006    0.000000000000000E+000
  6.000000000000000E-006    0.000000000000000E+000
  6.020000000000000E-006    0.000000000000000E+000
  6.040000000000000E-006    0.000000000000000E+000
  6.060000000000000E-006    0.000000000000000E+000
  6.079999999999999E-006    0.000000000000000E+000
  6.100000000000001E-006    0.000000000000000E+000
  6.120000000000001E-006    0.000000000000000E+000
  6.140000000000001E-006    0.000000000000000E+000
  6.160000000000000E-006    0.000000000000000E+000
  6.180000000000000E-006    0.000000000000000E+000
  6.200000000000000E-006    0.000000000000000E+000
  6.220000000000000E-006    0.000000000000000E+000
  6.240000000000000E-006    0.000000000000000E+000
  6.260000000000001E-006    0.000000000000000E+000
  6.280000000000001E-006    0.000000000000000E+000
  6.300000000000001E-006    0.000000000000000E+000
  6.320000000000000E-006    0.000000000000000E+000
  6.340000000000000E-006    0.000000000000000E+000
  6.360000000000000E-006    0.000000000000000E+000
  6.380000000000000E-006    0.000000000000000E+000
  6.400000000000000E-006    0.000000000000000E+000
  6.420000000000000E-006    0.000000000000000E+000
  6.439999999999999E-006    0.000000000000000E+000
  6.459999999999999E-006    0.000000000000000E+000
  6.480000000000001E-006    0.000000000000000E+000
  6.500000000000000E-006    0.000000000000000E+000
  6.520000000000000E-006    0.000000000000000E+000
  6.540000000000000E-006    0.000000000000000E+000
  6.560000000000000E-006    0.000000000000000E+000
  6.580000000000000E-006    0.000000000000000E+000
  6.599999999999999E-006    0.000000000000000E+000
  6.619999999999999E-006    0.000000000000000E+000
  6.639999999999999E-006    0.000000000000000E+000
  6.660000000000001E-006    0.000000000000000E+000
  6.680000000000000E-006    0.000000000000000E+000
  6.700000000000000E-006    0.000000000000000E+000
  6.720000000000000E-006    0.000000000000000E+000
  6.740000000000000E-006    0.000000000000000E+000
  6.760000000000000E-006    0.000000000000000E+000
  6.779999999999999E-006    0.000000000000000E+000
  6.799999999999999E-006    0.000000000000000E+000
  6.819999999999999E-006    0.000000000000000E+000
  6.840000000000001E-006    0.000000000000000E+000
  6.860000000000000E-006    0.000000000000000E+000
  6.880000000000000E-006    0.000000000000000E+000
  6.900000000000000E-006    0.000000000000000E+000
  6.920000000000000E-006    0.000000000000000E+000
  6.940000000000000E-006    0.000000000000000E+000
  6.959999999999999E-006    0.000000000000000E+000
  6.979999999999999E-006    0.000000000000000E+000
  6.999999999999999E-006    0.000000000000000E+000
  7.020000000000001E-006    0.000000000000000E+000
  7.040000000000000E-006    0.000000000000000E+000
  7.060000000000000E-006    0.000000000000000E+000
  7.080000000000000E-006    0.000000000000000E+000
  7.100000000000000E-006    0.000000000000000E+000
  7.120000000000000E-006    0.000000000000000E+000
  7.139999999999999E-006    0.000000000000000E+000
  7.159999999999999E-006    0.000000000000000E+000
  7.179999999999999E-006    0.000000000000000E+000
  7.200000000000001E-006    0.000000000000000E+000
  7.220000000000000E-006    0.000000000000000E+000
  7.240000000000000E-006    0.000000000000000E+000
  7.260000000000000E-006    0.000000000000000E+000
  7.280000000000000E-006    0.000000000000000E+000
  7.300000000000000E-006    0.000000000000000E+000
  7.319999999999999E-006    0.000000000000000E+000
  7.339999999999999E-006    0.000000000000000E+000
  7.359999999999999E-006    0.000000000000000E+000
  7.380000000000000E-006    0.000000000000000E+000
  7.400000000000000E-006    0.000000000000000E+000
  7.420000000000000E-006    0.000000000000000E+000
  7.440000000000000E-006    0.000000000000000E+000
  7.460000000000000E-006    0.000000000000000E+000
  7.480000000000000E-006    0.000000000000000E+000
  7.499999999999999E-006    0.000000000000000E+000
  7.519999999999999E-006    0.000000000000000E+000
  7.540000000000001E-006    0.000000000000000E+000
  7.560000000000000E-006    0.000000000000000E+000
  7.580000000000000E-006    0.000000000000000E+000
  7.600000000000000E-006    0.000000000000000E+000
  7.620000000000000E-006    0.000000000000000E+000
  7.640000000000000E-006    0.000000000000000E+000
  7.660000000000000E-006    0.000000000000000E+000
  7.679999999999999E-006    0.000000000000000E+000
  7.699999999999999E-006    0.000000000000000E+000
  7.720000000000001E-006    0.000000000000000E+000
  7.740000000000000E-006    0.000000000000000E+000
  7.760000000000000E-006    0.000000000000000E+000
  7.780000000000000E-006    0.000000000000000E+000
  7.800000000000000E-006    0.000000000000000E+000
  7.820000000000000E-006    0.000000000000000E+000
  7.839999999999999E-006    0.000000000000000E+000
  7.859999999999999E-006    0.000000000000000E+000
  7.879999999999999E-006    0.000000000000000E+000
  7.900000000000001E-006    0.000000000000000E+000
  7.920000000000000E-006    0.000000000000000E+000
  7.940000000000000E-006    0.000000000000000E+000
  7.960000000000000E-006    0.000000000000000E+000
  7.980000000000000E-006    0.000000000000000E+000
  8.000000000000000E-006    0.000000000000000E+000
  8.019999999999999E-006    0.000000000000000E+000
  8.039999999999999E-006    0.000000000000000E+000
  8.059999999999999E-006    0.000000000000000E+000
  8.080000000000001E-006    0.000000000000000E+000
  8.100000000000000E-006    0.000000000000000E+000
  8.120000000000000E-006    0.000000000000000E+000
  8.140000000000000E-006    0.000000000000000E+000
  8.160000000000000E-006    0.000000000000000E+000
  8.180000000000000E-006    0.000000000000000E+000
  8.199999999999999E-006    0.000000000000000E+000
  8.219999999999999E-006    0.000000000000000E+000
  8.239999999999999E-006    0.000000000000000E+000
  8.260000000000001E-006    0.000000000000000E+000
  8.280000000000000E-006    0.000000000000000E+000
  8.300000000000000E-006    0.000000000000000E+000
  8.320000000000000E-006    0.000000000000000E+000
  8.340000000000000E-006    0.000000000000000E+000
  8.360000000000000E-006    0.000000000000000E+000
  8.379999999999999E-006    0.000000000000000E+000
  8.399999999999999E-006    0.000000000000000E+000
  8.419999999999999E-006    0.000000000000000E+000
  8.440000000000001E-006    0.000000000000000E+000
  8.460000000000000E-006   -2.271823541432895E-039
  8.480000000000000E-006    9.797852050090997E-040
  8.500000000000000E-006   -6.125244639683623E-040
  8.520000000000000E-006   -3.753280444696109E-039
  8.540000000000000E-006    5.107902511945266E-039
  8.559999999999999E-006    5.664027621315459E-039
  8.579999999999999E-006   -2.834331060495981E-039
  8.600000000000001E-006   -1.348496296368175E-038
  8.620000000000000E-006   -5.943272198029253E-039
  8.640000000000000E-006    3.767501514561697E-038
  8.660000000000000E-006    1.090934547568412E-037
  8.680000000000000E-006    5.380656004884467E-038
  8.700000000000000E-006   -2.611643327015381E-037
  8.720000000000000E-006    2.484485815699715E-037
  8.739999999999999E-006    3.458915332519521E-037
  8.759999999999999E-006    2.724195277128057E-037
  8.780000000000001E-006   -3.089602805818747E-039
  8.800000000000000E-006   -1.402848403652213E-036
  8.820000000000000E-006   -4.173273963727752E-036
  8.840000000000000E-006   -6.311221592417264E-036
  8.860000000000000E-006   -2.878642780240880E-036
  8.880000000000000E-006    6.286498311808518E-036
  8.899999999999999E-006    1.682932020590136E-035
  8.919999999999999E-006    1.752275845550408E-035
  8.939999999999999E-006    1.525149195732828E-036
  8.960000000000001E-006   -2.790858140070443E-035
  8.980000000000000E-006   -5.573925034398178E-035
  9.000000000000000E-006   -5.295762482718646E-035
  9.020000000000000E-006    7.413594839707153E-036
  9.040000000000000E-006    1.157599610621727E-034
  9.060000000000000E-006    2.038728624692088E-034
  9.079999999999999E-006    1.630084993460281E-034
  9.099999999999999E-006   -8.104678371167213E-035
  9.119999999999999E-006   -4.637028981146523E-034
  9.140000000000001E-006   -7.241069520524707E-034
  9.160000000000000E-006   -4.883393565402868E-034
  9.180000000000000E-006    4.575829952728587E-034
  9.200000000000000E-006    1.802403054212408E-033
  9.220000000000000E-006    2.549739355253111E-033
  9.240000000000000E-006    1.410093567741948E-033
  9.259999999999999E-006   -2.170821538069576E-033
  9.279999999999999E-006   -6.808091561869883E-033
  9.299999999999999E-006   -8.834108100372111E-033
  9.320000000000001E-006   -3.907954730486123E-033
  9.340000000000000E-006    9.296188868645801E-033
  9.360000000000000E-006    2.512339127871666E-032
  9.380000000000000E-006    3.034022089923317E-032
  9.400000000000000E-006    1.043070690924758E-032
  9.420000000000000E-006   -3.736362995783779E-032
  9.439999999999999E-006   -9.107967968031366E-032
  9.459999999999999E-006   -1.037497020367164E-031
  9.479999999999999E-006   -2.702163776684119E-032
  9.500000000000001E-006    1.434421002692756E-031
  9.520000000000000E-006    3.256039489942433E-031
  9.540000000000000E-006    3.548306139541171E-031
  9.560000000000000E-006    6.972675981917559E-032
  9.580000000000000E-006   -5.313913207557002E-031
  9.600000000000000E-006   -1.151340992227523E-030
  9.619999999999999E-006   -1.218394248614866E-030
  9.639999999999999E-006   -1.901573056577839E-031
  9.660000000000001E-006    1.910978609165262E-030
  9.680000000000000E-006    4.035713477569347E-030
  9.700000000000000E-006    4.212317211342316E-030
  9.720000000000000E-006    5.989647620717756E-031
  9.740000000000000E-006   -6.692958543138364E-030
  9.760000000000000E-006   -1.404184135707297E-029
  9.780000000000000E-006   -1.468488178355431E-029
  9.799999999999999E-006   -2.290553268136335E-030
  9.819999999999999E-006    2.285586406163501E-029
  9.840000000000001E-006    4.852146182412260E-029
  9.860000000000000E-006    5.162372976816173E-029
  9.880000000000000E-006    1.012710924072185E-029
  9.900000000000000E-006   -7.604183120343649E-029
  9.920000000000000E-006   -1.664603766616492E-028
  9.940000000000000E-006   -1.827477735701433E-028
  9.960000000000000E-006   -4.740447860672138E-029
  9.979999999999999E-006    2.457451715948237E-028
  9.999999999999999E-006    5.663078522162153E-028
  1.002000000000000E-005    6.497904745406055E-028
  1.004000000000000E-005    2.216225406680851E-028
  1.006000000000000E-005   -7.668454570231291E-028
  1.008000000000000E-005   -1.906782501076471E-027
  1.010000000000000E-005   -2.312923426562095E-027
  1.012000000000000E-005   -1.009310230006413E-027
  1.014000000000000E-005    2.285884710500121E-027
  1.016000000000000E-005    6.335981174242512E-027
  1.018000000000000E-005    8.210219541470110E-027
  1.020000000000000E-005    4.443785064599468E-027
  1.022000000000000E-005   -6.379439945617868E-027
  1.024000000000000E-005   -2.069720647841392E-026
  1.026000000000000E-005   -2.894662926157990E-026
  1.028000000000000E-005   -1.889705648745282E-026
  1.030000000000000E-005    1.597006166020664E-026
  1.032000000000000E-005    6.611982937167567E-026
  1.034000000000000E-005    1.009418950973973E-025
  1.036000000000000E-005    7.769973697276183E-026
  1.038000000000000E-005   -3.179385245187092E-026
  1.040000000000000E-005   -2.050864398435778E-025
  1.042000000000000E-005   -3.466500470088753E-025
  1.044000000000000E-005   -3.093012453895953E-025
  1.046000000000000E-005    2.298939949873678E-026
  1.048000000000000E-005    6.110944655714524E-025
  1.050000000000000E-005    1.166843492191112E-024
  1.052000000000000E-005    1.192882427206799E-024
  1.054000000000000E-005    2.312193153185608E-025