 -1.200000000000000E-006    0.000000000000000E+000
 -1.180000000000000E-006    0.000000000000000E+000
 -1.160000000000000E-006    0.000000000000000E+000
 -1.140000000000000E-006    0.000000000000000E+000
 -1.120000000000000E-006    0.000000000000000E+000
 -1.100000000000000E-006    0.000000000000000E+000
 -1.080000000000000E-006    0.000000000000000E+000
 -1.060000000000000E-006    0.000000000000000E+000
 -1.040000000000000E-006    0.000000000000000E+000
 -1.020000000000000E-006    0.000000000000000E+000
 -1.000000000000000E-006    0.000000000000000E+000
 -9.799999999999999E-007    0.000000000000000E+000
 -9.599999999999999E-007    0.000000000000000E+000
 -9.399999999999999E-007    0.000000000000000E+000
 -9.199999999999999E-007    0.000000000000000E+000
 -9.000000000000000E-007    0.000000000000000E+000
 -8.799999999999999E-007    0.000000000000000E+000
 -8.599999999999999E-007    0.000000000000000E+000
 -8.400000000000000E-007    0.000000000000000E+000
 -8.200000000000000E-007    0.000000000000000E+000
 -8.000000000000000E-007    0.000000000000000E+000
 -7.799999999999999E-007    0.000000000000000E+000
 -7.599999999999999E-007    0.000000000000000E+000
 -7.399999999999999E-007    0.000000000000000E+000
 -7.199999999999999E-007    0.000000000000000E+000
 -7.000000000000000E-007    0.000000000000000E+000
 -6.799999999999999E-007    0.000000000000000E+000
 -6.599999999999999E-007    0.000000000000000E+000
 -6.399999999999999E-007    0.000000000000000E+000
 -6.199999999999999E-007    0.000000000000000E+000
 -6.000000000000000E-007    0.000000000000000E+000
 -5.800000000000000E-007    0.000000000000000E+000
 -5.599999999999999E-007    0.000000000000000E+000
 -5.399999999999999E-007    0.000000000000000E+000
 -5.199999999999999E-007    0.000000000000000E+000
 -5.000000000000000E-007    0.000000000000000E+000
 -4.800000000000000E-007    0.000000000000000E+000
 -4.599999999999999E-007    0.000000000000000E+000
 -4.399999999999999E-007    0.000000000000000E+000
 -4.199999999999999E-007    0.000000000000000E+000
 -4.000000000000000E-007    0.000000000000000E+000
 -3.800000000000000E-007    0.000000000000000E+000
 -3.599999999999999E-007    0.000000000000000E+000
 -3.399999999999999E-007    0.000000000000000E+000
 -3.199999999999999E-007    0.000000000000000E+000
 -2.999999999999999E-007    0.000000000000000E+000
 -2.800000000000000E-007    0.000000000000000E+000
 -2.599999999999999E-007    0.000000000000000E+000
 -2.399999999999998E-007    0.000000000000000E+000
 -2.200000000000000E-007    0.000000000000000E+000
 -2.000000000000000E-007    0.000000000000000E+000
 -1.800000000000000E-007    0.000000000000000E+000
 -1.600000000000000E-007    0.000000000000000E+000
 -1.399999999999999E-007   -2.744291708830091E-038
 -1.199999999999999E-007    3.603999677298697E-038
 -9.999999999999989E-008   -1.364603287320796E-037
 -7.999999999999987E-008    2.126151659935132E-037
 -5.999999999999985E-008    8.121886836674667E-038
 -3.999999999999983E-008   -1.893400264719096E-036
 -2.000000000000002E-008    7.500888796713745E-036
  0.000000000000000E+000   -1.718467263724152E-035
  2.000000000000002E-008    1.514483410776086E-035
  4.000000000000004E-008    2.834238396663286E-035
  6.000000000000006E-008   -1.620123908928099E-034
  8.000000000000008E-008    3.706230641187598E-034
  1.000000000000001E-007   -3.850163288996127E-034
  1.200000000000001E-007   -4.714601480327787E-034
  1.400000000000001E-007    2.955523413193666E-033
  1.600000000000002E-007   -6.291189848849957E-033
  1.800000000000002E-007    5.268068723574960E-033
  2.000000000000000E-007    1.071979272948864E-032
  2.200000000000000E-007   -4.848289657474781E-032
  2.400000000000000E-007    8.370251183458354E-032
  2.600000000000001E-007   -2.964057418454771E-032
  2.800000000000001E-007   -2.320650561884286E-031
  3.000000000000001E-007    6.640254814123589E-031
  3.200000000000001E-007   -7.602845907231625E-031
  3.400000000000001E-007   -5.044402443434078E-031
  3.600000000000002E-007    3.722423313215013E-030
  3.800000000000002E-007   -6.735090096759133E-030
  4.000000000000000E-007    2.741572317180880E-030
  4.200000000000000E-007    1.578869564288422E-029
  4.400000000000000E-007   -4.245958800837149E-029
  4.600000000000000E-007    4.010763994586896E-029
  4.800000000000001E-007    4.669234528469322E-029
  5.000000000000001E-007   -2.161876826829816E-028
  5.200000000000001E-007    2.969328072483820E-028
  5.400000000000001E-007    4.572313269457608E-029
  5.600000000000001E-007   -9.455654253283934E-028
  5.800000000000002E-007    1.678034786656594E-027
  6.000000000000002E-007   -5.521640836635279E-028
  6.200000000000000E-007   -3.542926782234185E-027
  6.400000000000000E-007    8.164045831408026E-027
  6.600000000000000E-007   -5.542216866691959E-027
  6.800000000000001E-007   -1.227172714123978E-026
  7.000000000000001E-007    3.662686661432823E-026
  7.200000000000003E-007   -3.008787155582836E-026
  7.400000000000001E-007   -4.097480448197206E-026
  7.599999999999999E-007    1.377926836161037E-025
  7.800000000000002E-007   -1.369752932929147E-025
  8.000000000000000E-007   -8.902303606187839E-026
  8.200000000000002E-007    5.113886389022747E-025
  8.400000000000000E-007   -6.577219306345341E-025
  8.600000000000002E-007   -2.692981964392220E-025
  8.800000000000000E-007    1.988612233680274E-024
  9.000000000000003E-007   -2.186655823902142E-024
  9.200000000000001E-007   -9.730227756597163E-025
  9.399999999999999E-007    5.810471949409710E-024
  9.600000000000001E-007   -7.491755259613791E-024
  9.799999999999999E-007   -8.812322919510753E-025
  1.000000000000000E-006    1.974466356216332E-023
  1.020000000000000E-006   -2.662464145887058E-023
  1.040000000000000E-006   -5.911372511010205E-024
  1.060000000000000E-006    6.109841428930041E-023
  1.080000000000000E-006   -7.761857555487232E-023
  1.100000000000000E-006   -1.405004897877635E-023
  1.120000000000000E-006    1.976160395627526E-022
  1.140000000000000E-006   -2.155954366641761E-022
  1.160000000000000E-006   -1.254729030261576E-022
  1.180000000000000E-006    4.544699763568913E-022
  1.200000000000000E-006   -4.608004081529327E-022
  1.220000000000000E-006    5.040216088803010E-023
  1.240000000000000E-006    1.415810141032139E-021
  1.260000000000000E-006   -2.104408611707549E-021
  1.280000000000000E-006   -1.496499339850475E-021
  1.300000000000000E-006    4.383222737741377E-021
  1.320000000000000E-006   -1.099370057599119E-021
  1.340000000000000E-006   -1.184941897065336E-021
  1.360000000000000E-006    6.423192832869855E-021
  1.380000000000000E-006   -1.366240205467376E-020
  1.400000000000000E-006   -1.087910688270010E-020
  1.420000000000000E-006    3.021554103161595E-020
  1.440000000000000E-006    8.166148280118109E-021
  1.460000000000000E-006   -3.806018804137579E-021
  1.480000000000000E-006    1.273621094478982E-020
  1.500000000000000E-006   -1.175951435550123E-019
  1.520000000000000E-006   -7.996099500513637E-020
  1.540000000000000E-006    2.631302697909135E-019
  1.560000000000000E-006    2.215888908069463E-019
  1.580000000000000E-006   -8.686955920157907E-020
  1.600000000000000E-006   -3.124435706644159E-019
  1.620000000000000E-006   -8.062129455846526E-019
  1.640000000000000E-006   -1.396302901204147E-019
  1.660000000000000E-006    1.827890633123630E-018
  1.680000000000000E-006    1.531736825901228E-018
  1.700000000000000E-006   -4.813663255027956E-019
  1.720000000000000E-006   -2.207558064075128E-018
  1.740000000000000E-006   -5.045247423649190E-018
  1.760000000000000E-006   -2.577153918876139E-018
  1.780000000000000E-006    8.044223311587234E-018
  1.800000000000000E-006    1.302125195317417E-017
  1.820000000000000E-006    7.981615863736533E-018
  1.840000000000000E-006   -8.515202055485929E-018
  1.860000000000000E-006   -3.953614704362802E-017
  1.880000000000000E-006   -4.144864151116900E-017
  1.900000000000000E-006    1.843528841941704E-017
  1.920000000000000E-006    9.143087413303415E-017
  1.940000000000000E-006    1.242417019944184E-016
  1.960000000000000E-006    4.290272774461131E-017
  1.980000000000000E-006   -2.026535696060479E-016
  2.000000000000000E-006   -3.991574372336271E-016
  2.020000000000000E-006   -2.524489674721643E-016
  2.040000000000000E-006    2.822817943201900E-016
  2.060000000000000E-006    1.000827522199126E-015
  2.080000000000000E-006    1.193664055878569E-015
  2.100000000000000E-006    1.062504295087448E-017
  2.120000000000000E-006   -2.189386168876767E-015
  2.140000000000000E-006   -3.737105652027118E-015
  2.160000000000000E-006   -2.451397604447263E-015
  2.180000000000000E-006    3.073899971768243E-015
  2.200000000000000E-006    1.015827988785415E-014
  2.220000000000000E-006    1.154380128166885E-014
  2.240000000000000E-006    9.499909437575844E-016
  2.260000000000000E-006   -2.042642396311728E-014
  2.280000000000000E-006   -3.816786782548238E-014
  2.300000000000000E-006   -2.755702547622484E-014
  2.320000000000000E-006    2.433835553822445E-014
  2.340000000000000E-006    9.454825500785800E-014
  2.360000000000000E-006    1.213986266589263E-013
  2.380000000000000E-006    3.546780945937598E-014
  2.400000000000000E-006   -1.670283491463260E-013
  2.420000000000000E-006   -3.600945529781971E-013
  2.440000000000000E-006   -3.245668548678909E-013
  2.460000000000000E-006    9.432460852655935E-014
  2.480000000000000E-006    7.695417998593372E-013
  2.500000000000000E-006    1.187092519410582E-012
  2.520000000000000E-006    6.897172668210831E-013
  2.540000000000000E-006   -9.405952505520580E-013
  2.560000000000000E-006   -2.924115430126556E-012
  2.580000000000000E-006   -3.493700876055619E-012
  2.600000000000000E-006   -9.398649997530729E-013
  2.620000000000000E-006    4.587905242821968E-012
  2.640000000000001E-006    9.848874585241339E-012
  2.660000000000000E-006    9.413910141192505E-012
  2.680000000000000E-006   -6.301036788201895E-013
  2.700000000000000E-006   -1.770257260102832E-011
  2.720000000000000E-006   -3.053346470212473E-011
  2.740000000000000E-006   -2.375339286537454E-011
  2.760000000000000E-006    1.048892548677645E-011
  2.780000000000000E-006    5.982354594531125E-011
  2.800000000000000E-006    8.916290387656863E-011
  2.820000000000001E-006    5.761887807436528E-011
  2.840000000000000E-006   -4.818644193995963E-011
  2.860000000000000E-006   -1.837706866255067E-010
  2.880000000000000E-006   -2.486612155113390E-010
  2.900000000000000E-006   -1.394250694681860E-010
  2.920000000000000E-006    1.619107641503123E-010
  2.940000000000000E-006    5.195242486826452E-010
  2.960000000000000E-006    6.661688441292107E-010
  2.980000000000000E-006    3.510659561171625E-010
  3.000000000000000E-006   -4.409596228258784E-010
  3.020000000000000E-006   -1.343880327805138E-009
  3.040000000000000E-006   -1.699052412677247E-009
  3.060000000000000E-006   -9.314853316901433E-010
  3.080000000000000E-006    9.473528348825457E-010
  3.100000000000000E-006    3.062705967556219E-009
  3.120000000000000E-006    3.960955499499981E-009
  3.140000000000000E-006    2.484722010560069E-009
  3.160000000000000E-006   -1.221704581820477E-009
  3.180000000000000E-006   -5.374093425284687E-009
  3.200000000000000E-006   -7.437606179861388E-009
  3.220000000000000E-006   -5.924383946018554E-009
  3.240000000000000E-006   -1.756834426267399E-009
  3.260000000000001E-006    2.394942190087803E-009
  3.280000000000000E-006    5.054955494754893E-009
  3.300000000000000E-006    8.862365715716702E-009
  3.320000000000000E-006    1.940981713482367E-008
  3.340000000000000E-006    3.753457346039871E-008
  3.360000000000000E-006    4.863846431049160E-008
  3.380000000000000E-006    2.021392129264287E-008
  3.400000000000000E-006   -7.939987310320699E-008
  3.420000000000000E-006   -2.392462377378415E-007
  3.440000000000001E-006   -3.634657270480838E-007
  3.460000000000000E-006   -2.750335326926027E-007
  3.480000000000000E-006    1.894551027275113E-007
  3.500000000000000E-006    9.979675806801134E-007
  3.520000000000000E-006    1.748776537104242E-006
  3.540000000000000E-006    1.680320863783759E-006
  3.560000000000000E-006    2.989257965740662E-008
  3.580000000000000E-006   -3.269639145194455E-006
  3.600000000000000E-006   -6.882848325107263E-006
  3.620000000000000E-006   -7.973980645561479E-006
  3.640000000000000E-006   -3.327868676411936E-006
  3.660000000000000E-006    8.245511784655565E-006
  3.680000000000000E-006    2.319366856201936E-005
  3.700000000000001E-006    3.219773682512548E-005
  3.720000000000000E-006    2.302895869173285E-005
  3.740000000000000E-006   -1.198410845422529E-005
  3.760000000000000E-006   -6.627971609375556E-005
  3.780000000000000E-006   -1.131118064104161E-004
  3.800000000000000E-006   -1.107200888453125E-004
  3.820000000000001E-006   -2.283147393999086E-005
  3.840000000000001E-006    1.499262502145505E-004
  3.860000000000000E-006    3.434097372169715E-004
  3.880000000000000E-006    4.312167680387082E-004
  3.900000000000000E-006    2.722769598701761E-004
  3.920000000000000E-006   -1.978471580446100E-004
  3.940000000000000E-006   -8.676837219839903E-004
  3.959999999999999E-006   -1.407590749944072E-003
  3.980000000000001E-006   -1.351832654874952E-003
  4.000000000000001E-006   -3.291918239254335E-004
  4.020000000000000E-006    1.620621362433487E-003
  4.040000000000000E-006    3.805395510870461E-003
  4.060000000000000E-006    4.923425514595466E-003
  4.080000000000000E-006    3.538957219347166E-003
  4.100000000000000E-006   -1.059187727684098E-003
  4.120000000000000E-006   -7.945907586540841E-003
  4.139999999999999E-006   -1.415383407290183E-002
  4.160000000000001E-006   -1.533052308748043E-002
  4.180000000000001E-006   -7.657484687969701E-003
  4.200000000000000E-006    9.454870004878307E-003
  4.220000000000000E-006    3.113705476068522E-002
  4.240000000000000E-006    4.692578540679770E-002
  4.260000000000000E-006    4.394790152356878E-002
  4.280000000000000E-006    1.327940368580116E-002
  4.299999999999999E-006   -4.264361055117097E-002
  4.320000000000001E-006   -0.105392455110231     
  4.340000000000001E-006   -0.142803674497873     
  4.360000000000001E-006   -0.120248677977258     
  4.380000000000000E-006   -1.887671365053961E-002
  4.400000000000000E-006    0.146122876182968     
  4.420000000000000E-006    0.317393289604704     
  4.440000000000000E-006    0.406491874484523     
  4.460000000000000E-006    0.326684778094216     
  4.479999999999999E-006    3.928747276391698E-002
  4.500000000000001E-006   -0.405222805628548     
  4.520000000000001E-006   -0.854843446769000     
  4.540000000000001E-006    -1.09010566979438     
  4.560000000000000E-006   -0.905048171979133     
  4.580000000000000E-006   -0.212041994898676     
  4.600000000000000E-006    0.872442722645350     
  4.620000000000000E-006     2.00882212994841     
  4.640000000000000E-006     2.71247777272553     
  4.659999999999999E-006     2.52192319841173     
  4.680000000000001E-006     1.20573227210544     
  4.700000000000001E-006    -1.07436198496160     
  4.720000000000001E-006    -3.72621587695015     
  4.740000000000000E-006    -5.85848592613486     
  4.760000000000000E-006    -6.55545077575341     
  4.780000000000000E-006    -5.20297110548547     
  4.800000000000000E-006    -1.73883255095765     
  4.820000000000000E-006     3.27687503425716     
  4.839999999999999E-006     8.79913716076008     
  4.860000000000001E-006     13.5725895141072     
  4.880000000000001E-006     16.4041233361299     
  4.900000000000001E-006     16.3007054843474     
  4.920000000000000E-006     12.4317074089741     
  4.940000000000000E-006     4.01596174013700     
  4.960000000000000E-006    -9.65820554082328     
  4.980000000000000E-006    -28.8794617607728     
  5.000000000000000E-006    -52.7877423689048     
  5.019999999999999E-006    -78.5108620863767     
  5.040000000000001E-006    -100.646908081618     
  5.060000000000001E-006    -111.629539752264     
  5.080000000000000E-006    -103.257847009880     
  5.100000000000000E-006    -69.1154741475506     
  5.120000000000000E-006    -6.94699038094075     
  5.140000000000000E-006     80.3723127045579     
  5.160000000000000E-006     186.548154390956     
  5.180000000000000E-006     306.786517025207     
  5.199999999999999E-006     445.195878812190     
  5.220000000000001E-006     622.722657595123     
  5.240000000000001E-006     883.042216565424     
  5.260000000000000E-006     1294.25478402975     
  5.280000000000000E-006     1945.79516519600     
  5.300000000000000E-006     2942.05719289819     
  5.320000000000000E-006     4396.06725996905     
  5.340000000000000E-006     6427.09981357975     
  5.360000000000000E-006     9164.61494084274     
  5.380000000000001E-006     12758.0896176095     
  5.400000000000001E-006     17388.7894693173     
  5.420000000000001E-006     23276.6096925076     
  5.440000000000000E-006     30674.7740207558     
  5.460000000000000E-006     39847.4942467110     
  5.480000000000000E-006     51029.5570281357     
  5.500000000000000E-006     64372.0790247658     
  5.520000000000000E-006     79882.3734067315     
  5.539999999999999E-006     97366.3151047479     
  5.560000000000001E-006     116380.328097663     
  5.580000000000001E-006     136195.365208779     
  5.600000000000001E-006     155772.761338015     
  5.620000000000000E-006     173749.896621311     
  5.640000000000000E-006     188435.400302599     
  5.660000000000000E-006     197819.050317830     
  5.680000000000000E-006     199608.797015792     
  5.700000000000000E-006     191308.011449575     
  5.719999999999999E-006     170347.554286736     
  5.740000000000001E-006     134279.084108931     
  5.760000000000001E-006     81026.1695035899     
  5.780000000000001E-006     9174.06754466120     
  5.800000000000000E-006    -81727.8558140027     
  5.820000000000000E-006    -190887.418490088     
  5.840000000000000E-006    -316044.056275885     
  5.860000000000000E-006    -453324.609084868     
  5.880000000000000E-006    -597202.334410652     
  5.899999999999999E-006    -740573.912594576     
  5.920000000000001E-006    -874972.603493360     
  5.940000000000001E-006    -990930.792703361     
  5.960000000000001E-006    -1078500.56135359     
  5.980000000000000E-006    -1127920.64961913     
  6.000000000000000E-006    -1130407.04372333     
  6.020000000000000E-006    -1078986.01483789     
  6.040000000000000E-006    -969289.385391404     
  6.060000000000000E-006    -800218.282607967     
  6.079999999999999E-006    -574379.438237762     
  6.100000000000001E-006    -298240.661817540     
  6.120000000000001E-006     18003.8913032181     
  6.140000000000001E-006     360845.607565115     
  6.160000000000000E-006     714108.400958328     
  6.180000000000000E-006     1059808.50095550     
  6.200000000000000E-006     1379196.90018485     
  6.220000000000000E-006     1653940.21666742     
  6.240000000000000E-006     1867387.73854891     
  6.260000000000001E-006     2005842.52124281     
  6.280000000000001E-006     2059689.99238816     
  6.300000000000001E-006     2024248.44992756     
  6.320000000000000E-006     1900205.06278634     
  6.340000000000000E-006     1693592.85158738     
  6.360000000000000E-006     1415303.48582684     
  6.380000000000000E-006     1080237.47392101     
  6.400000000000000E-006     706203.402888382     
  6.420000000000000E-006     312709.386388266     
  6.439999999999999E-006    -80274.8810136869     
  6.459999999999999E-006    -453544.837916015     
  6.480000000000001E-006    -789812.341307882     
  6.500000000000000E-006    -1074711.62232356     
  6.520000000000000E-006    -1297587.38805633     
  6.540000000000000E-006    -1451983.22568614     
  6.560000000000000E-006    -1535772.77642245     
  6.580000000000000E-006    -1550923.76174716     
  6.599999999999999E-006    -1502940.24216306     
  6.619999999999999E-006    -1400124.51134096     
  6.639999999999999E-006    -1252761.45724827     
  6.660000000000001E-006    -1072296.65445215     
  6.680000000000000E-006    -870580.532266916     
  6.700000000000000E-006    -659204.837328605     
  6.720000000000000E-006    -448942.659185361     
  6.740000000000000E-006    -249282.968822061     
  6.760000000000000E-006    -68062.4029030405     
  6.779999999999999E-006     88775.5484498810     
  6.799999999999999E-006     217291.859000188     
  6.819999999999999E-006     315570.502022075     
  6.840000000000001E-006     383643.379016558     
  6.860000000000000E-006     423312.828331778     
  6.880000000000000E-006     437884.619873001     
  6.900000000000000E-006     431809.519111089     
  6.920000000000000E-006     410227.300170885     
  6.940000000000000E-006     378437.001613742     
  6.959999999999999E-006     341349.765461068     
  6.979999999999999E-006     303023.545593665     
  6.999999999999999E-006     266368.161148307     
  7.020000000000001E-006     233046.343005330     
  7.040000000000000E-006     203550.422263251     
  7.060000000000000E-006     177370.257149212     
  7.080000000000000E-006     153164.178235278     
  7.100000000000000E-006     128974.662794404     
  7.120000000000000E-006     102619.957959407     
  7.139999999999999E-006     72317.2357901311     
  7.159999999999999E-006     37440.7417341151     
  7.179999999999999E-006    -850.719869635745     
  7.200000000000001E-006    -39455.2913488422     
  7.220000000000000E-006    -73830.8739710132     
  7.240000000000000E-006    -99050.1370607336     
  7.260000000000000E-006    -111005.166279593     
  7.280000000000000E-006    -107305.087825900     
  7.300000000000000E-006    -87682.7180209771     
  7.319999999999999E-006    -54023.9528429785     
  7.339999999999999E-006    -10210.4072483165     
  7.359999999999999E-006     38111.0591020417     
  7.380000000000000E-006     83896.4248933384     
  7.400000000000000E-006     119416.817081841     
  7.420000000000000E-006     137412.318182210     
  7.440000000000000E-006     132517.445871421     
  7.460000000000000E-006     102585.892048844     
  7.480000000000000E-006     49524.0111667325     
  7.499999999999999E-006    -20566.9546259159     
  7.519999999999999E-006    -97953.3301048783     
  7.540000000000001E-006    -170510.354406952     
  7.560000000000000E-006    -225553.325292370     
  7.580000000000000E-006    -252030.400039483     
  7.600000000000000E-006    -242685.225949270     
  7.620000000000000E-006    -195626.567280280     
  7.640000000000000E-006    -114839.475190810     
  7.660000000000000E-006    -9616.75181688514     
  7.679999999999999E-006     106731.998537719     
  7.699999999999999E-006     218457.851402973     
  7.720000000000001E-006     309028.183159542     
  7.740000000000000E-006     363010.599285081     
  7.760000000000000E-006     368389.269744268     
  7.780000000000000E-006     319138.819172204     
  7.800000000000000E-006     217360.568643686     
  7.820000000000000E-006     74003.1094615510     
  7.839999999999999E-006    -92436.2616836596     
  7.859999999999999E-006    -258894.932262550     
  7.879999999999999E-006    -401421.600043507     
  7.900000000000001E-006    -498577.473822781     
  7.920000000000000E-006    -534064.269789022     
  7.940000000000000E-006    -498664.517822867     
  7.960000000000000E-006    -391759.879485312     
  7.980000000000000E-006    -222353.872193764     
  8.000000000000000E-006    -9091.04464794809     
  8.019999999999999E-006     221352.532387420     
  8.039999999999999E-006     437719.800320710     
  8.059999999999999E-006     608871.961954610     
  8.080000000000001E-006     708632.325343422     
  8.100000000000000E-006     719728.276965337     
  8.120000000000000E-006     636180.282437336     
  8.140000000000000E-006     464074.335933134     
  8.160000000000000E-006     221008.120140111     
  8.180000000000000E-006    -65579.1825720724     
  8.199999999999999E-006    -361142.508700063     
  8.219999999999999E-006    -627828.692048682     
  8.239999999999999E-006    -829201.579863275     
  8.260000000000001E-006    -935375.778298362     
  8.280000000000000E-006    -927654.101258739     
  8.300000000000000E-006    -801656.280075321     
  8.320000000000000E-006    -568240.302498836     
  8.340000000000000E-006    -252218.924449892     
  8.360000000000000E-006     110578.222424388     
  8.379999999999999E-006     477336.634891910     
  8.399999999999999E-006     803003.918781851     
  8.419999999999999E-006     1045499.45643234     
  8.440000000000001E-006     1171102.47657710     
  8.460000000000000E-006     1159353.77763923     
  8.480000000000000E-006     1006390.43323457     
  8.500000000000000E-006     725786.858413897     
  8.520000000000000E-006     346833.842428100     
  8.540000000000000E-006    -88920.5473438667     
  8.559999999999999E-006    -532029.672728700     
  8.579999999999999E-006    -930232.671801455     
  8.600000000000001E-006    -1234346.86950772     
  8.620000000000000E-006    -1404607.63195416     
  8.640000000000000E-006    -1416424.35085909     
  8.660000000000000E-006    -1264099.09431902     
  8.680000000000000E-006    -961388.325517986     
  8.700000000000000E-006    -539061.542424414     
  8.720000000000000E-006    -40951.5971729574     
  8.739999999999999E-006     479990.553931582     
  8.759999999999999E-006     965750.996755895     
  8.780000000000001E-006     1358821.71102022     
  8.800000000000000E-006     1609785.23140699     
  8.820000000000000E-006     1685228.70950424     
  8.840000000000000E-006     1573156.76073602     
  8.860000000000000E-006     1283945.19006030     
  8.880000000000000E-006     847154.368463840     
  8.899999999999999E-006     306599.143721424     
  8.919999999999999E-006    -283760.074814942     
  8.939999999999999E-006    -862718.959786682     
  8.960000000000001E-006    -1365866.67671262     
  8.980000000000000E-006    -1733105.97683845     
  9.000000000000000E-006    -1918573.29851380     
  9.020000000000000E-006    -1898713.94906500     
  9.040000000000000E-006    -1674868.69770367     
  9.060000000000000E-006    -1270294.85364784     
  9.079999999999999E-006    -724774.945418536     
  9.099999999999999E-006    -90241.2032804671     
  9.119999999999999E-006     571678.392046680     
  9.140000000000001E-006     1192406.29473564     
  9.160000000000000E-006     1702687.02778647     
  9.180000000000000E-006     2042889.33210485     
  9.200000000000000E-006     2173376.82197326     
  9.220000000000000E-006     2079760.30807178     
  9.240000000000000E-006     1771682.91086844     
  9.259999999999999E-006     1278416.79222513     
  9.279999999999999E-006     645310.623634539     
  9.299999999999999E-006    -68151.3910957271     
  9.320000000000001E-006    -791172.104186243     
  9.340000000000000E-006    -1447939.44185033     
  9.360000000000000E-006    -1967502.84712336     
  9.380000000000000E-006    -2294289.16328061     
  9.400000000000000E-006    -2394931.95750690     
  9.420000000000000E-006    -2259366.42861689     
  9.439999999999999E-006    -1898544.89206928     
  9.459999999999999E-006    -1342861.54189823     
  9.479999999999999E-006    -642209.839906841     
  9.500000000000001E-006     135682.563466008     
  9.520000000000000E-006     911928.436593687     
  9.540000000000000E-006     1607168.63110513     
  9.560000000000000E-006     2152068.01371723     
  9.580000000000000E-006     2494215.31596183     
  9.600000000000000E-006     2600829.94621384     
  9.619999999999999E-006     2459183.56923089     
  9.639999999999999E-006     2077424.22064424     
  9.660000000000001E-006     1486639.17121143     
  9.680000000000000E-006     741452.436261304     
  9.700000000000000E-006    -84729.7686534809     
  9.720000000000000E-006    -910028.930136288     
  9.740000000000000E-006    -1655254.01553864     
  9.760000000000000E-006    -2251327.86500447     
  9.780000000000000E-006    -2642988.13077853     
  9.799999999999999E-006    -2791658.81527248     
  9.819999999999999E-006    -2679117.32285223     
  9.840000000000001E-006    -2311165.43692046     
  9.860000000000000E-006    -1719400.94572635     
  9.880000000000000E-006    -959158.212962290     
  9.900000000000000E-006    -102816.558079757     
  9.920000000000000E-006     769565.083852535     
  9.940000000000000E-006     1578393.07740075     
  9.960000000000000E-006     2249904.19313563     
  9.979999999999999E-006     2721038.16547351     
  9.999999999999999E-006     2945732.32650349     
  1.002000000000000E-005     2900911.36771547     
  1.004000000000000E-005     2589227.77537413     
  1.006000000000000E-005     2038102.68185550     
  1.008000000000000E-005     1296597.22905464     
  1.010000000000000E-005     430878.192977086     
  1.012000000000000E-005    -481629.616585256     
  1.014000000000000E-005    -1358678.75113641     
  1.016000000000000E-005    -2119969.79404081     
  1.018000000000000E-005    -2694931.24320698     
  1.020000000000000E-005    -3030679.40103989     
  1.022000000000000E-005    -3097253.13493625     
  1.024000000000000E-005    -2888645.64349783     
  1.026000000000000E-005    -2421649.35163369     
  1.028000000000000E-005    -1734933.21847193     
  1.030000000000000E-005    -887526.614577364     
  1.032000000000000E-005     45569.6513506578     
  1.034000000000000E-005     980655.252181140     
  1.036000000000000E-005     1833746.81939755     
  1.038000000000000E-005     2528920.56928940     
  1.040000000000000E-005     3005468.97867284     
  1.042000000000000E-005     3222421.58859546     
  1.044000000000000E-005     3160370.80991266     
  1.046000000000000E-005     2822449.32355608     
  1.048000000000000E-005     2235462.85896209     
  1.050000000000000E-005     1449320.42452223     
  1.052000000000000E-005     532705.467968088     
  1.054000000000000E-005    -434151.343792161     