 -1.200000000000000E-006    0.000000000000000E+000
 -1.180000000000000E-006    0.000000000000000E+000
 -1.160000000000000E-006    0.000000000000000E+000
 -1.140000000000000E-006    0.000000000000000E+000
 -1.120000000000000E-006    0.000000000000000E+000
 -1.100000000000000E-006    0.000000000000000E+000
 -1.080000000000000E-006    0.000000000000000E+000
 -1.060000000000000E-006    0.000000000000000E+000
 -1.040000000000000E-006    0.000000000000000E+000
 -1.020000000000000E-006    0.000000000000000E+000
 -1.000000000000000E-006    0.000000000000000E+000
 -9.799999999999999E-007    0.000000000000000E+000
 -9.599999999999999E-007    0.000000000000000E+000
 -9.399999999999999E-007    0.000000000000000E+000
 -9.199999999999999E-007    0.000000000000000E+000
 -9.000000000000000E-007    0.000000000000000E+000
 -8.799999999999999E-007    0.000000000000000E+000
 -8.599999999999999E-007    0.000000000000000E+000
 -8.400000000000000E-007    0.000000000000000E+000
 -8.200000000000000E-007    0.000000000000000E+000
 -8.000000000000000E-007    0.000000000000000E+000
 -7.799999999999999E-007    0.000000000000000E+000
 -7.599999999999999E-007    0.000000000000000E+000
 -7.399999999999999E-007    0.000000000000000E+000
 -7.199999999999999E-007    0.000000000000000E+000
 -7.000000000000000E-007    0.000000000000000E+000
 -6.799999999999999E-007    0.000000000000000E+000
 -6.599999999999999E-007    0.000000000000000E+000
 -6.399999999999999E-007    0.000000000000000E+000
 -6.199999999999999E-007    0.000000000000000E+000
 -6.000000000000000E-007    0.000000000000000E+000
 -5.800000000000000E-007    0.000000000000000E+000
 -5.599999999999999E-007    0.000000000000000E+000
 -5.399999999999999E-007    0.000000000000000E+000
 -5.199999999999999E-007    0.000000000000000E+000
 -5.000000000000000E-007    0.000000000000000E+000
 -4.800000000000000E-007    0.000000000000000E+000
 -4.599999999999999E-007    0.000000000000000E+000
 -4.399999999999999E-007    0.000000000000000E+000
 -4.199999999999999E-007    0.000000000000000E+000
 -4.000000000000000E-007    0.000000000000000E+000
 -3.800000000000000E-007    0.000000000000000E+000
 -3.599999999999999E-007    0.000000000000000E+000
 -3.399999999999999E-007    0.000000000000000E+000
 -3.199999999999999E-007    0.000000000000000E+000
 -2.999999999999999E-007    0.000000000000000E+000
 -2.800000000000000E-007    0.000000000000000E+000
 -2.599999999999999E-007    0.000000000000000E+000
 -2.399999999999998E-007    0.000000000000000E+000
 -2.200000000000000E-007    0.000000000000000E+000
 -2.000000000000000E-007    0.000000000000000E+000
 -1.800000000000000E-007    0.000000000000000E+000
 -1.600000000000000E-007    0.000000000000000E+000
 -1.399999999999999E-007    0.000000000000000E+000
 -1.199999999999999E-007    0.000000000000000E+000
 -9.999999999999989E-008    0.000000000000000E+000
 -7.999999999999987E-008    0.000000000000000E+000
 -5.999999999999985E-008    0.000000000000000E+000
 -3.999999999999983E-008    0.000000000000000E+000
 -2.000000000000002E-008    0.000000000000000E+000
  0.000000000000000E+000    0.000000000000000E+000
  2.000000000000002E-008    0.000000000000000E+000
  4.000000000000004E-008    0.000000000000000E+000
  6.000000000000006E-008    0.000000000000000E+000
  8.000000000000008E-008    0.000000000000000E+000
  1.000000000000001E-007    0.000000000000000E+000
  1.200000000000001E-007    0.000000000000000E+000
  1.400000000000001E-007    0.000000000000000E+000
  1.600000000000002E-007    0.000000000000000E+000
  1.800000000000002E-007    0.000000000000000E+000
  2.000000000000000E-007    0.000000000000000E+000
  2.200000000000000E-007    0.000000000000000E+000
  2.400000000000000E-007    0.000000000000000E+000
  2.600000000000001E-007    0.000000000000000E+000
  2.800000000000001E-007    0.000000000000000E+000
  3.000000000000001E-007    0.000000000000000E+000
  3.200000000000001E-007    0.000000000000000E+000
  3.400000000000001E-007    0.000000000000000E+000
  3.600000000000002E-007    0.000000000000000E+000
  3.800000000000002E-007    0.000000000000000E+000
  4.000000000000000E-007    0.000000000000000E+000
  4.200000000000000E-007    0.000000000000000E+000
  4.400000000000000E-007    0.000000000000000E+000
  4.600000000000000E-007    0.000000000000000E+000
  4.800000000000001E-007    0.000000000000000E+000
  5.000000000000001E-007    0.000000000000000E+000
  5.200000000000001E-007    0.000000000000000E+000
  5.400000000000001E-007    0.000000000000000E+000
  5.600000000000001E-007    0.000000000000000E+000
  5.800000000000002E-007    0.000000000000000E+000
  6.000000000000002E-007    0.000000000000000E+000
  6.200000000000000E-007    0.000000000000000E+000
  6.400000000000000E-007    0.000000000000000E+000
  6.600000000000000E-007    0.000000000000000E+000
  6.800000000000001E-007    0.000000000000000E+000
  7.000000000000001E-007    0.000000000000000E+000
  7.200000000000003E-007    0.000000000000000E+000
  7.400000000000001E-007    0.000000000000000E+000
  7.599999999999999E-007    0.000000000000000E+000
  7.800000000000002E-007    0.000000000000000E+000
  8.000000000000000E-007    0.000000000000000E+000
  8.200000000000002E-007    0.000000000000000E+000
  8.400000000000000E-007    0.000000000000000E+000
  8.600000000000002E-007    0.000000000000000E+000
  8.800000000000000E-007    0.000000000000000E+000
  9.000000000000003E-007    0.000000000000000E+000
  9.200000000000001E-007    0.000000000000000E+000
  9.399999999999999E-007    0.000000000000000E+000
  9.600000000000001E-007    0.000000000000000E+000
  9.799999999999999E-007    0.000000000000000E+000
  1.000000000000000E-006    0.000000000000000E+000
  1.020000000000000E-006    0.000000000000000E+000
  1.040000000000000E-006    0.000000000000000E+000
  1.060000000000000E-006    0.000000000000000E+000
  1.080000000000000E-006    0.000000000000000E+000
  1.100000000000000E-006    0.000000000000000E+000
  1.120000000000000E-006    0.000000000000000E+000
  1.140000000000000E-006    0.000000000000000E+000
  1.160000000000000E-006    0.000000000000000E+000
  1.180000000000000E-006    0.000000000000000E+000
  1.200000000000000E-006    0.000000000000000E+000
  1.220000000000000E-006    0.000000000000000E+000
  1.240000000000000E-006    0.000000000000000E+000
  1.260000000000000E-006    0.000000000000000E+000
  1.280000000000000E-006    0.000000000000000E+000
  1.300000000000000E-006    0.000000000000000E+000
  1.320000000000000E-006    0.000000000000000E+000
  1.340000000000000E-006    0.000000000000000E+000
  1.360000000000000E-006    0.000000000000000E+000
  1.380000000000000E-006    0.000000000000000E+000
  1.400000000000000E-006    0.000000000000000E+000
  1.420000000000000E-006    0.000000000000000E+000
  1.440000000000000E-006    0.000000000000000E+000
  1.460000000000000E-006    0.000000000000000E+000
  1.480000000000000E-006    0.000000000000000E+000
  1.500000000000000E-006    0.000000000000000E+000
  1.520000000000000E-006    0.000000000000000E+000
  1.540000000000000E-006    0.000000000000000E+000
  1.560000000000000E-006    0.000000000000000E+000
  1.580000000000000E-006    0.000000000000000E+000
  1.600000000000000E-006    0.000000000000000E+000
  1.620000000000000E-006    0.000000000000000E+000
  1.640000000000000E-006    0.000000000000000E+000
  1.660000000000000E-006    0.000000000000000E+000
  1.680000000000000E-006    0.000000000000000E+000
  1.700000000000000E-006    0.000000000000000E+000
  1.720000000000000E-006    0.000000000000000E+000
  1.740000000000000E-006    0.000000000000000E+000
  1.760000000000000E-006    0.000000000000000E+000
  1.780000000000000E-006    0.000000000000000E+000
  1.800000000000000E-006    0.000000000000000E+000
  1.820000000000000E-006    0.000000000000000E+000
  1.840000000000000E-006    0.000000000000000E+000
  1.860000000000000E-006    0.000000000000000E+000
  1.880000000000000E-006    0.000000000000000E+000
  1.900000000000000E-006    0.000000000000000E+000
  1.920000000000000E-006    0.000000000000000E+000
  1.940000000000000E-006    0.000000000000000E+000
  1.960000000000000E-006    0.000000000000000E+000
  1.980000000000000E-006    0.000000000000000E+000
  2.000000000000000E-006    0.000000000000000E+000
  2.020000000000000E-006    0.000000000000000E+000
  2.040000000000000E-006    0.000000000000000E+000
  2.060000000000000E-006    0.000000000000000E+000
  2.080000000000000E-006    0.000000000000000E+000
  2.100000000000000E-006    0.000000000000000E+000
  2.120000000000000E-006    0.000000000000000E+000
  2.140000000000000E-006    0.000000000000000E+000
  2.160000000000000E-006    0.000000000000000E+000
  2.180000000000000E-006    0.000000000000000E+000
  2.200000000000000E-006    0.000000000000000E+000
  2.220000000000000E-006    0.000000000000000E+000
  2.240000000000000E-006    0.000000000000000E+000
  2.260000000000000E-006    0.000000000000000E+000
  2.280000000000000E-006    0.000000000000000E+000
  2.300000000000000E-006    0.000000000000000E+000
  2.320000000000000E-006    0.000000000000000E+000
  2.340000000000000E-006    0.000000000000000E+000
  2.360000000000000E-006    0.000000000000000E+000
  2.380000000000000E-006    0.000000000000000E+000
  2.400000000000000E-006    0.000000000000000E+000
  2.420000000000000E-006    0.000000000000000E+000
  2.440000000000000E-006    0.000000000000000E+000
  2.460000000000000E-006    0.000000000000000E+000
  2.480000000000000E-006    0.000000000000000E+000
  2.500000000000000E-006    0.000000000000000E+000
  2.520000000000000E-006    0.000000000000000E+000
  2.540000000000000E-006    0.000000000000000E+000
  2.560000000000000E-006    0.000000000000000E+000
  2.580000000000000E-006    0.000000000000000E+000
  2.600000000000000E-006    0.000000000000000E+000
  2.620000000000000E-006    0.000000000000000E+000
  2.640000000000001E-006    0.000000000000000E+000
  2.660000000000000E-006    0.000000000000000E+000
  2.680000000000000E-006    0.000000000000000E+000
  2.700000000000000E-006    0.000000000000000E+000
  2.720000000000000E-006    0.000000000000000E+000
  2.740000000000000E-006    0.000000000000000E+000
  2.760000000000000E-006    0.000000000000000E+000
  2.780000000000000E-006    0.000000000000000E+000
  2.800000000000000E-006    0.000000000000000E+000
  2.820000000000001E-006    0.000000000000000E+000
  2.840000000000000E-006    0.000000000000000E+000
  2.860000000000000E-006    0.000000000000000E+000
  2.880000000000000E-006    0.000000000000000E+000
  2.900000000000000E-006    0.000000000000000E+000
  2.920000000000000E-006    0.000000000000000E+000
  2.940000000000000E-006    0.000000000000000E+000
  2.960000000000000E-006    0.000000000000000E+000
  2.980000000000000E-006    0.000000000000000E+000
  3.000000000000000E-006    0.000000000000000E+000
  3.020000000000000E-006    0.000000000000000E+000
  3.040000000000000E-006    0.000000000000000E+000
  3.060000000000000E-006    0.000000000000000E+000
  3.080000000000000E-006    0.000000000000000E+000
  3.100000000000000E-006    0.000000000000000E+000
  3.120000000000000E-006    0.000000000000000E+000
  3.140000000000000E-006    0.000000000000000E+000
  3.160000000000000E-006    0.000000000000000E+000
  3.180000000000000E-006    0.000000000000000E+000
  3.200000000000000E-006    0.000000000000000E+000
  3.220000000000000E-006    0.000000000000000E+000
  3.240000000000000E-006    0.000000000000000E+000
  3.260000000000001E-006    0.000000000000000E+000
  3.280000000000000E-006    0.000000000000000E+000
  3.300000000000000E-006    0.000000000000000E+000
  3.320000000000000E-006    0.000000000000000E+000
  3.340000000000000E-006    0.000000000000000E+000
  3.360000000000000E-006    0.000000000000000E+000
  3.380000000000000E-006    0.000000000000000E+000
  3.400000000000000E-006    0.000000000000000E+000
  3.420000000000000E-006    0.000000000000000E+000
  3.440000000000001E-006    0.000000000000000E+000
  3.460000000000000E-006    0.000000000000000E+000
  3.480000000000000E-006    0.000000000000000E+000
  3.500000000000000E-006    0.000000000000000E+000
  3.520000000000000E-006    0.000000000000000E+000
  3.540000000000000E-006    0.000000000000000E+000
  3.560000000000000E-006    0.000000000000000E+000
  3.580000000000000E-006    0.000000000000000E+000
  3.600000000000000E-006    0.000000000000000E+000
  3.620000000000000E-006    0.000000000000000E+000
  3.640000000000000E-006    0.000000000000000E+000
  3.660000000000000E-006    0.000000000000000E+000
  3.680000000000000E-006    0.000000000000000E+000
  3.700000000000001E-006    0.000000000000000E+000
  3.720000000000000E-006    0.000000000000000E+000
  3.740000000000000E-006    0.000000000000000E+000
  3.760000000000000E-006    0.000000000000000E+000
  3.780000000000000E-006    0.000000000000000E+000
  3.800000000000000E-006    0.000000000000000E+000
  3.820000000000001E-006    0.000000000000000E+000
  3.840000000000001E-006    0.000000000000000E+000
  3.860000000000000E-006    0.000000000000000E+000
  3.880000000000000E-006    0.000000000000000E+000
  3.900000000000000E-006    0.000000000000000E+000
  3.920000000000000E-006    0.000000000000000E+000
  3.940000000000000E-006    0.000000000000000E+000
  3.959999999999999E-006    0.000000000000000E+000
  3.980000000000001E-006    0.000000000000000E+000
  4.000000000000001E-006    0.000000000000000E+000
  4.020000000000000E-006    0.000000000000000E+000
  4.040000000000000E-006    0.000000000000000E+000
  4.060000000000000E-006    0.000000000000000E+000
  4.080000000000000E-006    0.000000000000000E+000
  4.100000000000000E-006    0.000000000000000E+000
  4.120000000000000E-006    0.000000000000000E+000
  4.139999999999999E-006    0.000000000000000E+000
  4.160000000000001E-006    0.000000000000000E+000
  4.180000000000001E-006    0.000000000000000E+000
  4.200000000000000E-006    0.000000000000000E+000
  4.220000000000000E-006    0.000000000000000E+000
  4.240000000000000E-006    0.000000000000000E+000
  4.260000000000000E-006    0.000000000000000E+000
  4.280000000000000E-006    0.000000000000000E+000
  4.299999999999999E-006    0.000000000000000E+000
  4.320000000000001E-006    0.000000000000000E+000
  4.340000000000001E-006    0.000000000000000E+000
  4.360000000000001E-006    0.000000000000000E+000
  4.380000000000000E-006    0.000000000000000E+000
  4.400000000000000E-006    0.000000000000000E+000
  4.420000000000000E-006    0.000000000000000E+000
  4.440000000000000E-006    0.000000000000000E+000
  4.460000000000000E-006    0.000000000000000E+000
  4.479999999999999E-006    0.000000000000000E+000
  4.500000000000001E-006    0.000000000000000E+000
  4.520000000000001E-006    0.000000000000000E+000
  4.540000000000001E-006    0.000000000000000E+000
  4.560000000000000E-006    0.000000000000000E+000
  4.580000000000000E-006    0.000000000000000E+000
  4.600000000000000E-006    0.000000000000000E+000
  4.620000000000000E-006    0.000000000000000E+000
  4.640000000000000E-006    0.000000000000000E+000
  4.659999999999999E-006    0.000000000000000E+000
  4.680000000000001E-006    0.000000000000000E+000
  4.700000000000001E-006    0.000000000000000E+000
  4.720000000000001E-006    0.000000000000000E+000
  4.740000000000000E-006    0.000000000000000E+000
  4.760000000000000E-006    0.000000000000000E+000
  4.780000000000000E-006    0.000000000000000E+000
  4.800000000000000E-006    0.000000000000000E+000
  4.820000000000000E-006    0.000000000000000E+000
  4.839999999999999E-006    0.000000000000000E+000
  4.860000000000001E-006    0.000000000000000E+000
  4.880000000000001E-006    0.000000000000000E+000
  4.900000000000001E-006    0.000000000000000E+000
  4.920000000000000E-006    0.000000000000000E+000
  4.940000000000000E-006    0.000000000000000E+000
  4.960000000000000E-006    0.000000000000000E+000
  4.980000000000000E-006    0.000000000000000E+000
  5.000000000000000E-006    0.000000000000000E+000
  5.019999999999999E-006    0.000000000000000E+000
  5.040000000000001E-006    0.000000000000000E+000
  5.060000000000001E-006    0.000000000000000E+000
  5.080000000000000E-006    0.000000000000000E+000
  5.100000000000000E-006    0.000000000000000E+000
  5.120000000000000E-006    0.000000000000000E+000
  5.140000000000000E-006    0.000000000000000E+000
  5.160000000000000E-006    0.000000000000000E+000
  5.180000000000000E-006    0.000000000000000E+000
  5.199999999999999E-006    0.000000000000000E+000
  5.220000000000001E-006   -3.815783849021209E-038
  5.240000000000001E-006    1.275384945862798E-038
  5.260000000000000E-006    7.207773740496896E-038
  5.280000000000000E-006    5.939693591884225E-038
  5.300000000000000E-006   -1.504336894027229E-037
  5.320000000000000E-006   -1.269203736771206E-037
  5.340000000000000E-006    1.555956877158267E-037
  5.360000000000000E-006   -1.021492419026103E-037
  5.380000000000001E-006   -8.502920342179012E-037
  5.400000000000001E-006   -4.286175025139908E-037
  5.420000000000001E-006    5.364585412158519E-037
  5.440000000000000E-006   -1.957865641652139E-037
  5.460000000000000E-006   -2.984640751552476E-036
  5.480000000000000E-006   -5.045951215270241E-036
  5.500000000000000E-006   -1.484963483904980E-036
  5.520000000000000E-006    5.611420528558858E-036
  5.539999999999999E-006    9.364418887465205E-036
  5.560000000000001E-006    4.685204796084373E-036
  5.580000000000001E-006   -9.143365650314019E-036
  5.600000000000001E-006   -2.516610464888861E-035
  5.620000000000000E-006   -2.574936358949875E-035
  5.640000000000000E-006    6.869786332230404E-036
  5.660000000000000E-006    6.218790763735559E-035
  5.680000000000000E-006    9.283568414298848E-035
  5.700000000000000E-006    3.941708299991917E-035
  5.719999999999999E-006   -1.151332622244237E-034
  5.740000000000001E-006   -2.793989898819001E-034
  5.760000000000001E-006   -2.598595451781492E-034
  5.780000000000001E-006    9.604345404287286E-035
  5.800000000000000E-006    6.846108957688916E-034
  5.820000000000000E-006    1.013440763441365E-033
  5.840000000000000E-006    4.238449342938307E-034
  5.860000000000000E-006   -1.240081180896815E-033
  5.880000000000000E-006   -3.005461355169931E-033
  5.899999999999999E-006   -2.879852271083476E-033
  5.920000000000001E-006    7.999764743302497E-034
  5.940000000000001E-006    7.040955795617994E-033
  5.960000000000001E-006    1.088309427203798E-032
  5.980000000000000E-006    5.603761255711571E-033
  6.000000000000000E-006   -1.119630372035792E-032
  6.020000000000000E-006   -3.079706462336889E-032
  6.040000000000000E-006   -3.307518211533985E-032
  6.060000000000000E-006    6.280884403687505E-034
  6.079999999999999E-006    6.495051300806197E-032
  6.100000000000001E-006    1.149072018715459E-031
  6.120000000000001E-006    8.047225438618312E-032
  6.140000000000001E-006   -7.689090585563134E-032
  6.160000000000000E-006   -2.923283859686973E-031
  6.180000000000000E-006   -3.776911742637461E-031
  6.200000000000000E-006   -1.196576382205981E-031
  6.220000000000000E-006    5.068785382975432E-031
  6.240000000000000E-006    1.142337329462500E-030
  6.260000000000001E-006    1.096104287064221E-030
  6.280000000000001E-006   -1.926639942237201E-031
  6.300000000000001E-006   -2.432907459581195E-030
  6.320000000000000E-006   -4.044685511486846E-030
  6.340000000000000E-006   -2.729058530495899E-030
  6.360000000000000E-006    2.696030521119621E-030
  6.380000000000000E-006    1.006626470545916E-029
  6.400000000000000E-006    1.325785522257661E-029
  6.420000000000000E-006    5.217267089340096E-030
  6.439999999999999E-006   -1.542763106882502E-029
  6.459999999999999E-006   -3.804675593660412E-029
  6.480000000000001E-006   -4.076667209815785E-029
  6.500000000000000E-006   -3.467796494892210E-030
  6.520000000000000E-006    7.000363090740608E-029
  6.540000000000000E-006    1.353809811580726E-028
  6.560000000000000E-006    1.188113185769831E-028
  6.580000000000000E-006   -3.332678190268962E-029
  6.599999999999999E-006   -2.832875955622866E-028
  6.619999999999999E-006   -4.628859897737072E-028
  6.639999999999999E-006   -3.318463000678770E-028
  6.660000000000001E-006    2.440009357529023E-028
  6.680000000000000E-006    1.071471566287335E-027
  6.700000000000000E-006    1.546532578833311E-027
  6.720000000000000E-006    9.025272014079575E-028
  6.740000000000000E-006   -1.179055586535853E-027
  6.760000000000000E-006   -3.887527455730477E-027
  6.779999999999999E-006   -5.125849906473200E-027
  6.799999999999999E-006   -2.453219511035163E-027
  6.819999999999999E-006    4.870050822076669E-027
  6.840000000000001E-006    1.376649147549417E-026
  6.860000000000000E-006    1.708175841279445E-026
  6.880000000000000E-006    6.935185376034083E-027
  6.900000000000000E-006   -1.848724483336279E-026
  6.920000000000000E-006   -4.817531749794830E-026
  6.940000000000000E-006   -5.783976273697684E-026
  6.959999999999999E-006   -2.135415774451997E-026
  6.979999999999999E-006    6.658994051018456E-026
  6.999999999999999E-006    1.680419275312525E-025
  7.020000000000001E-006    2.002170528153846E-025
  7.040000000000000E-006    7.363200087813921E-026
  7.060000000000000E-006   -2.314315891758701E-025
  7.080000000000000E-006   -5.872506222240947E-025
  7.100000000000000E-006   -7.091965394918305E-025
  7.120000000000000E-006   -2.811089432462146E-025
  7.139999999999999E-006    7.828225815346409E-025
  7.159999999999999E-006    2.059770871440761E-024
  7.179999999999999E-006    2.561707715500708E-024
  7.200000000000001E-006    1.144297979392109E-024
  7.220000000000000E-006   -2.584355701648488E-024
  7.240000000000000E-006   -7.243659071107331E-024
  7.260000000000000E-006   -9.379170737415035E-024
  7.280000000000000E-006   -4.787168948553191E-024
  7.300000000000000E-006    8.305501575952060E-024
  7.319999999999999E-006    2.546201636349720E-023
  7.339999999999999E-006    3.457292458110449E-023
  7.359999999999999E-006    2.010246668567521E-023
  7.380000000000000E-006   -2.575765316781820E-023
  7.400000000000000E-006   -8.906721929562894E-023
  7.420000000000000E-006   -1.274997790231159E-022
  7.440000000000000E-006   -8.371067572144556E-023
  7.460000000000000E-006    7.570437185380897E-023
  7.480000000000000E-006    3.084681436398394E-022
  7.499999999999999E-006    4.679035055748095E-022
  7.519999999999999E-006    3.437501791867432E-022
  7.540000000000001E-006   -2.031440555036678E-022
  7.560000000000000E-006   -1.051767762770782E-021
  7.580000000000000E-006   -1.701065069837605E-021
  7.600000000000000E-006   -1.388357536974336E-021
  7.620000000000000E-006    4.523026112438060E-022
  7.640000000000000E-006    3.508346209948629E-021
  7.660000000000000E-006    6.102249754297512E-021
  7.679999999999999E-006    5.506288958116931E-021
  7.699999999999999E-006   -5.305198314642979E-022
  7.720000000000001E-006   -1.136193268913211E-020
  7.740000000000000E-006   -2.151881466462509E-020
  7.760000000000000E-006   -2.141185639837802E-020
  7.780000000000000E-006   -2.282156098927203E-021
  7.800000000000000E-006    3.536113483544203E-020
  7.820000000000000E-006    7.429340315740961E-020
  7.839999999999999E-006    8.148878220900361E-020
  7.859999999999999E-006    2.362537550386420E-020
  7.879999999999999E-006   -1.041213840167175E-019
  7.900000000000001E-006   -2.499409070638478E-019
  7.920000000000000E-006   -3.028342229831186E-019
  7.940000000000000E-006   -1.390398204744602E-019
  7.960000000000000E-006    2.821061158717754E-019
  7.980000000000000E-006    8.144668826505861E-019
  8.000000000000000E-006    1.095770039166941E-018
  8.019999999999999E-006    6.783154756386578E-019
  8.039999999999999E-006   -6.611824783715525E-019
  8.059999999999999E-006   -2.549579046026519E-018
  8.080000000000001E-006   -3.846392667049836E-018
  8.100000000000000E-006   -2.979085905157531E-018
  8.120000000000000E-006    1.090762289249707E-018
  8.140000000000000E-006    7.572461850403876E-018
  8.160000000000000E-006    1.303595873288056E-017
  8.180000000000000E-006    1.213997454465141E-017
  8.199999999999999E-006    5.111980153778336E-019
  8.219999999999999E-006   -2.089862950657957E-017
  8.239999999999999E-006   -4.238288418103022E-017
  8.260000000000001E-006   -4.649256909889955E-017
  8.280000000000000E-006   -1.611827844957856E-017
  8.300000000000000E-006    5.141715465557299E-017
  8.320000000000000E-006    1.309640582302611E-016
  8.340000000000000E-006    1.681153463480624E-016
  8.360000000000000E-006    1.000305499390881E-016
  8.379999999999999E-006   -1.010788033813260E-016
  8.399999999999999E-006   -3.790241111698084E-016
  8.419999999999999E-006   -5.737282061307293E-016
  8.440000000000001E-006   -4.678218331902329E-016
  8.460000000000000E-006    8.676386080176830E-017
  8.480000000000000E-006    1.000930362931916E-015
  8.500000000000000E-006    1.838669012675341E-015
  8.520000000000000E-006    1.893327333886872E-015
  8.540000000000000E-006    5.288738122995786E-016
  8.559999999999999E-006   -2.279773798860669E-015
  8.579999999999999E-006   -5.473047743740433E-015
  8.600000000000001E-006   -6.908000467152092E-015
  8.620000000000000E-006   -4.180083593132683E-015
  8.640000000000000E-006    3.756687986296949E-015
  8.660000000000000E-006    1.480717931884689E-014
  8.680000000000000E-006    2.300281196005242E-014
  8.700000000000000E-006    2.011940597837623E-014
  8.720000000000000E-006    1.340575859195697E-016
  8.739999999999999E-006   -3.473334184776450E-014
  8.759999999999999E-006   -6.969629979402302E-014
  8.780000000000001E-006   -7.917255344022645E-014
  8.800000000000000E-006   -3.767774418491678E-014
  8.820000000000000E-006    6.160783142915873E-014
  8.840000000000000E-006    1.885853031018448E-013
  8.860000000000000E-006    2.716172241376378E-013
  8.880000000000000E-006    2.193863454658477E-013
  8.899999999999999E-006   -2.786119273682242E-014
  8.919999999999999E-006   -4.335650557653613E-013
  8.939999999999999E-006   -8.229150875794574E-013
  8.960000000000001E-006   -9.089874345714725E-013
  8.980000000000000E-006   -4.156261253500358E-013
  9.000000000000000E-006    7.219650897837534E-013
  9.020000000000000E-006    2.164805239171791E-012
  9.040000000000000E-006    3.124459131608196E-012
  9.060000000000000E-006    2.595802272525954E-012
  9.079999999999999E-006   -1.014783083230226E-013
  9.099999999999999E-006   -4.632445761577695E-012
  9.119999999999999E-006   -9.176024079537829E-012
  9.140000000000001E-006   -1.064130821601296E-011
  9.160000000000000E-006   -5.889660807049844E-012
  9.180000000000000E-006    6.180486978427551E-012
  9.200000000000000E-006    2.250137573690840E-011
  9.220000000000000E-006    3.504674278686701E-011
  9.240000000000000E-006    3.281159391770729E-011
  9.259999999999999E-006    7.103790759887528E-012
  9.279999999999999E-006   -4.113168524803700E-011
  9.299999999999999E-006   -9.541485501497209E-011
  9.320000000000001E-006   -1.240742522182451E-010
  9.340000000000000E-006   -9.075769061649908E-011
  9.360000000000000E-006    2.498293228641029E-011
  9.380000000000000E-006    2.037056916339145E-010
  9.400000000000000E-006    3.719473904851812E-010
  9.420000000000000E-006    4.135577773303110E-010
  9.439999999999999E-006    2.159992993231522E-010
  9.459999999999999E-006   -2.550200466232110E-010
  9.479999999999999E-006   -8.815803629759493E-010
  9.500000000000001E-006   -1.367732055304998E-009
  9.520000000000000E-006   -1.309656882689773E-009
  9.540000000000000E-006   -3.801257457159640E-010
  9.560000000000000E-006    1.414512281608429E-009
  9.580000000000000E-006    3.518987510058566E-009
  9.600000000000000E-006    4.817146329055979E-009
  9.619999999999999E-006    3.962280746066376E-009
  9.639999999999999E-006    6.514507723214607E-011
  9.660000000000001E-006   -6.456559179849963E-009
  9.680000000000000E-006   -1.328830530052936E-008
  9.700000000000000E-006   -1.641755196675390E-008
  9.720000000000000E-006   -1.150191897739210E-008
  9.740000000000000E-006    3.686281980042186E-009
  9.760000000000000E-006    2.654602022442619E-008
  9.780000000000000E-006    4.814209457604741E-008
  9.799999999999999E-006    5.457875894633185E-008
  9.819999999999999E-006    3.222942600533959E-008
  9.840000000000001E-006   -2.390914819540636E-008
  9.860000000000000E-006   -1.017913450582720E-007
  9.880000000000000E-006   -1.688020200657486E-007
  9.900000000000000E-006   -1.782594810714102E-007
  9.920000000000000E-006   -8.825816193282636E-008
  9.940000000000000E-006    1.106975691774619E-007
  9.960000000000000E-006    3.701186036011331E-007
  9.979999999999999E-006    5.761985789833314E-007
  9.999999999999999E-006    5.760100917094980E-007
  1.002000000000000E-005    2.421905953520067E-007
  1.004000000000000E-005   -4.381614722724557E-007
  1.006000000000000E-005   -1.287013358071727E-006
  1.008000000000000E-005   -1.922398829231637E-006
  1.010000000000000E-005   -1.853660135057625E-006
  1.012000000000000E-005   -6.943904854485634E-007
  1.014000000000000E-005    1.558358128436746E-006
  1.016000000000000E-005    4.296773880320816E-006
  1.018000000000000E-005    6.283606903811070E-006
  1.020000000000000E-005    5.971984166117890E-006
  1.022000000000000E-005    2.179718786331180E-006
  1.024000000000000E-005   -5.051760518803959E-006
  1.026000000000000E-005   -1.377937853613137E-005
  1.028000000000000E-005   -2.013122463452601E-005
  1.030000000000000E-005   -1.930638545193041E-005
  1.032000000000000E-005   -7.631175625526958E-006
  1.034000000000000E-005    1.484782274880884E-005
  1.036000000000000E-005    4.232011370425969E-005
  1.038000000000000E-005    6.309478274216484E-005
  1.040000000000000E-005    6.250871379771744E-005
  1.042000000000000E-005    2.895642166704800E-005
  1.044000000000000E-005   -3.843125811590038E-005
  1.046000000000000E-005   -1.235530264149075E-004
  1.048000000000000E-005   -1.925008563693044E-004
  1.050000000000000E-005   -2.013509179906078E-004
  1.052000000000000E-005   -1.130902736649619E-004
  1.054000000000000E-005    8.014970968166208E-005