 -1.200000000000000E-006    0.000000000000000E+000
 -1.180000000000000E-006    0.000000000000000E+000
 -1.160000000000000E-006    0.000000000000000E+000
 -1.140000000000000E-006    0.000000000000000E+000
 -1.120000000000000E-006    0.000000000000000E+000
 -1.100000000000000E-006    0.000000000000000E+000
 -1.080000000000000E-006    0.000000000000000E+000
 -1.060000000000000E-006    0.000000000000000E+000
 -1.040000000000000E-006    0.000000000000000E+000
 -1.020000000000000E-006    0.000000000000000E+000
 -1.000000000000000E-006    0.000000000000000E+000
 -9.799999999999999E-007    0.000000000000000E+000
 -9.599999999999999E-007    0.000000000000000E+000
 -9.399999999999999E-007    0.000000000000000E+000
 -9.199999999999999E-007    0.000000000000000E+000
 -9.000000000000000E-007    0.000000000000000E+000
 -8.799999999999999E-007    0.000000000000000E+000
 -8.599999999999999E-007    0.000000000000000E+000
 -8.400000000000000E-007    0.000000000000000E+000
 -8.200000000000000E-007    0.000000000000000E+000
 -8.000000000000000E-007    0.000000000000000E+000
 -7.799999999999999E-007    0.000000000000000E+000
 -7.599999999999999E-007    0.000000000000000E+000
 -7.399999999999999E-007    0.000000000000000E+000
 -7.199999999999999E-007    0.000000000000000E+000
 -7.000000000000000E-007    0.000000000000000E+000
 -6.799999999999999E-007    0.000000000000000E+000
 -6.599999999999999E-007    0.000000000000000E+000
 -6.399999999999999E-007    0.000000000000000E+000
 -6.199999999999999E-007    0.000000000000000E+000
 -6.000000000000000E-007    0.000000000000000E+000
 -5.800000000000000E-007    0.000000000000000E+000
 -5.599999999999999E-007    0.000000000000000E+000
 -5.399999999999999E-007    0.000000000000000E+000
 -5.199999999999999E-007    0.000000000000000E+000
 -5.000000000000000E-007    0.000000000000000E+000
 -4.800000000000000E-007    0.000000000000000E+000
 -4.599999999999999E-007    0.000000000000000E+000
 -4.399999999999999E-007    0.000000000000000E+000
 -4.199999999999999E-007    0.000000000000000E+000
 -4.000000000000000E-007    0.000000000000000E+000
 -3.800000000000000E-007    0.000000000000000E+000
 -3.599999999999999E-007    0.000000000000000E+000
 -3.399999999999999E-007    0.000000000000000E+000
 -3.199999999999999E-007    0.000000000000000E+000
 -2.999999999999999E-007    0.000000000000000E+000
 -2.800000000000000E-007    0.000000000000000E+000
 -2.599999999999999E-007    0.000000000000000E+000
 -2.399999999999998E-007    0.000000000000000E+000
 -2.200000000000000E-007    0.000000000000000E+000
 -2.000000000000000E-007    0.000000000000000E+000
 -1.800000000000000E-007    0.000000000000000E+000
 -1.600000000000000E-007    0.000000000000000E+000
 -1.399999999999999E-007    0.000000000000000E+000
 -1.199999999999999E-007    0.000000000000000E+000
 -9.999999999999989E-008    0.000000000000000E+000
 -7.999999999999987E-008    0.000000000000000E+000
 -5.999999999999985E-008    0.000000000000000E+000
 -3.999999999999983E-008    0.000000000000000E+000
 -2.000000000000002E-008    0.000000000000000E+000
  0.000000000000000E+000    0.000000000000000E+000
  2.000000000000002E-008    0.000000000000000E+000
  4.000000000000004E-008    0.000000000000000E+000
  6.000000000000006E-008    0.000000000000000E+000
  8.000000000000008E-008    0.000000000000000E+000
  1.000000000000001E-007    0.000000000000000E+000
  1.200000000000001E-007    0.000000000000000E+000
  1.400000000000001E-007    0.000000000000000E+000
  1.600000000000002E-007    0.000000000000000E+000
  1.800000000000002E-007    0.000000000000000E+000
  2.000000000000000E-007    0.000000000000000E+000
  2.200000000000000E-007    0.000000000000000E+000
  2.400000000000000E-007    0.000000000000000E+000
  2.600000000000001E-007    0.000000000000000E+000
  2.800000000000001E-007    0.000000000000000E+000
  3.000000000000001E-007    0.000000000000000E+000
  3.200000000000001E-007    0.000000000000000E+000
  3.400000000000001E-007    0.000000000000000E+000
  3.600000000000002E-007    0.000000000000000E+000
  3.800000000000002E-007    0.000000000000000E+000
  4.000000000000000E-007    0.000000000000000E+000
  4.200000000000000E-007    0.000000000000000E+000
  4.400000000000000E-007    0.000000000000000E+000
  4.600000000000000E-007    0.000000000000000E+000
  4.800000000000001E-007    0.000000000000000E+000
  5.000000000000001E-007    0.000000000000000E+000
  5.200000000000001E-007    0.000000000000000E+000
  5.400000000000001E-007    0.000000000000000E+000
  5.600000000000001E-007    0.000000000000000E+000
  5.800000000000002E-007    0.000000000000000E+000
  6.000000000000002E-007    0.000000000000000E+000
  6.200000000000000E-007    0.000000000000000E+000
  6.400000000000000E-007    0.000000000000000E+000
  6.600000000000000E-007    0.000000000000000E+000
  6.800000000000001E-007    0.000000000000000E+000
  7.000000000000001E-007    0.000000000000000E+000
  7.200000000000003E-007    0.000000000000000E+000
  7.400000000000001E-007    0.000000000000000E+000
  7.599999999999999E-007    0.000000000000000E+000
  7.800000000000002E-007    0.000000000000000E+000
  8.000000000000000E-007    0.000000000000000E+000
  8.200000000000002E-007    0.000000000000000E+000
  8.400000000000000E-007    0.000000000000000E+000
  8.600000000000002E-007    0.000000000000000E+000
  8.800000000000000E-007    0.000000000000000E+000
  9.000000000000003E-007    0.000000000000000E+000
  9.200000000000001E-007    0.000000000000000E+000
  9.399999999999999E-007    0.000000000000000E+000
  9.600000000000001E-007    0.000000000000000E+000
  9.799999999999999E-007    0.000000000000000E+000
  1.000000000000000E-006    0.000000000000000E+000
  1.020000000000000E-006    0.000000000000000E+000
  1.040000000000000E-006    0.000000000000000E+000
  1.060000000000000E-006    0.000000000000000E+000
  1.080000000000000E-006    0.000000000000000E+000
  1.100000000000000E-006    0.000000000000000E+000
  1.120000000000000E-006    0.000000000000000E+000
  1.140000000000000E-006    0.000000000000000E+000
  1.160000000000000E-006    0.000000000000000E+000
  1.180000000000000E-006    0.000000000000000E+000
  1.200000000000000E-006    0.000000000000000E+000
  1.220000000000000E-006    0.000000000000000E+000
  1.240000000000000E-006    0.000000000000000E+000
  1.260000000000000E-006    0.000000000000000E+000
  1.280000000000000E-006    0.000000000000000E+000
  1.300000000000000E-006    0.000000000000000E+000
  1.320000000000000E-006    0.000000000000000E+000
  1.340000000000000E-006    0.000000000000000E+000
  1.360000000000000E-006    0.000000000000000E+000
  1.380000000000000E-006    0.000000000000000E+000
  1.400000000000000E-006    0.000000000000000E+000
  1.420000000000000E-006    0.000000000000000E+000
  1.440000000000000E-006    0.000000000000000E+000
  1.460000000000000E-006    0.000000000000000E+000
  1.480000000000000E-006    0.000000000000000E+000
  1.500000000000000E-006    0.000000000000000E+000
  1.520000000000000E-006    0.000000000000000E+000
  1.540000000000000E-006    0.000000000000000E+000
  1.560000000000000E-006    0.000000000000000E+000
  1.580000000000000E-006    0.000000000000000E+000
  1.600000000000000E-006    0.000000000000000E+000
  1.620000000000000E-006    0.000000000000000E+000
  1.640000000000000E-006    0.000000000000000E+000
  1.660000000000000E-006    0.000000000000000E+000
  1.680000000000000E-006    0.000000000000000E+000
  1.700000000000000E-006    0.000000000000000E+000
  1.720000000000000E-006    0.000000000000000E+000
  1.740000000000000E-006    0.000000000000000E+000
  1.760000000000000E-006    0.000000000000000E+000
  1.780000000000000E-006    0.000000000000000E+000
  1.800000000000000E-006    0.000000000000000E+000
  1.820000000000000E-006    0.000000000000000E+000
  1.840000000000000E-006    0.000000000000000E+000
  1.860000000000000E-006    0.000000000000000E+000
  1.880000000000000E-006    0.000000000000000E+000
  1.900000000000000E-006    0.000000000000000E+000
  1.920000000000000E-006    0.000000000000000E+000
  1.940000000000000E-006    0.000000000000000E+000
  1.960000000000000E-006    0.000000000000000E+000
  1.980000000000000E-006    0.000000000000000E+000
  2.000000000000000E-006    0.000000000000000E+000
  2.020000000000000E-006    0.000000000000000E+000
  2.040000000000000E-006    0.000000000000000E+000
  2.060000000000000E-006    0.000000000000000E+000
  2.080000000000000E-006    0.000000000000000E+000
  2.100000000000000E-006    0.000000000000000E+000
  2.120000000000000E-006    0.000000000000000E+000
  2.140000000000000E-006    0.000000000000000E+000
  2.160000000000000E-006    0.000000000000000E+000
  2.180000000000000E-006    0.000000000000000E+000
  2.200000000000000E-006    0.000000000000000E+000
  2.220000000000000E-006    0.000000000000000E+000
  2.240000000000000E-006    0.000000000000000E+000
  2.260000000000000E-006    0.000000000000000E+000
  2.280000000000000E-006    0.000000000000000E+000
  2.300000000000000E-006    0.000000000000000E+000
  2.320000000000000E-006    0.000000000000000E+000
  2.340000000000000E-006    0.000000000000000E+000
  2.360000000000000E-006    0.000000000000000E+000
  2.380000000000000E-006    0.000000000000000E+000
  2.400000000000000E-006    0.000000000000000E+000
  2.420000000000000E-006    0.000000000000000E+000
  2.440000000000000E-006    0.000000000000000E+000
  2.460000000000000E-006    0.000000000000000E+000
  2.480000000000000E-006    0.000000000000000E+000
  2.500000000000000E-006    0.000000000000000E+000
  2.520000000000000E-006    0.000000000000000E+000
  2.540000000000000E-006    0.000000000000000E+000
  2.560000000000000E-006    0.000000000000000E+000
  2.580000000000000E-006    0.000000000000000E+000
  2.600000000000000E-006    0.000000000000000E+000
  2.620000000000000E-006    0.000000000000000E+000
  2.640000000000001E-006    0.000000000000000E+000
  2.660000000000000E-006    0.000000000000000E+000
  2.680000000000000E-006    0.000000000000000E+000
  2.700000000000000E-006    0.000000000000000E+000
  2.720000000000000E-006    0.000000000000000E+000
  2.740000000000000E-006    0.000000000000000E+000
  2.760000000000000E-006    0.000000000000000E+000
  2.780000000000000E-006    0.000000000000000E+000
  2.800000000000000E-006    0.000000000000000E+000
  2.820000000000001E-006    0.000000000000000E+000
  2.840000000000000E-006    0.000000000000000E+000
  2.860000000000000E-006    0.000000000000000E+000
  2.880000000000000E-006    0.000000000000000E+000
  2.900000000000000E-006    0.000000000000000E+000
  2.920000000000000E-006    0.000000000000000E+000
  2.940000000000000E-006    0.000000000000000E+000
  2.960000000000000E-006    0.000000000000000E+000
  2.980000000000000E-006    0.000000000000000E+000
  3.000000000000000E-006    0.000000000000000E+000
  3.020000000000000E-006    0.000000000000000E+000
  3.040000000000000E-006    0.000000000000000E+000
  3.060000000000000E-006    0.000000000000000E+000
  3.080000000000000E-006    0.000000000000000E+000
  3.100000000000000E-006    0.000000000000000E+000
  3.120000000000000E-006    0.000000000000000E+000
  3.140000000000000E-006    0.000000000000000E+000
  3.160000000000000E-006    0.000000000000000E+000
  3.180000000000000E-006    0.000000000000000E+000
  3.200000000000000E-006    0.000000000000000E+000
  3.220000000000000E-006    0.000000000000000E+000
  3.240000000000000E-006    0.000000000000000E+000
  3.260000000000001E-006    0.000000000000000E+000
  3.280000000000000E-006    0.000000000000000E+000
  3.300000000000000E-006    0.000000000000000E+000
  3.320000000000000E-006    0.000000000000000E+000
  3.340000000000000E-006    0.000000000000000E+000
  3.360000000000000E-006    0.000000000000000E+000
  3.380000000000000E-006    0.000000000000000E+000
  3.400000000000000E-006    0.000000000000000E+000
  3.420000000000000E-006    0.000000000000000E+000
  3.440000000000001E-006    0.000000000000000E+000
  3.460000000000000E-006    0.000000000000000E+000
  3.480000000000000E-006    0.000000000000000E+000
  3.500000000000000E-006    0.000000000000000E+000
  3.520000000000000E-006    0.000000000000000E+000
  3.540000000000000E-006    0.000000000000000E+000
  3.560000000000000E-006    0.000000000000000E+000
  3.580000000000000E-006    0.000000000000000E+000
  3.600000000000000E-006    0.000000000000000E+000
  3.620000000000000E-006    0.000000000000000E+000
  3.640000000000000E-006    0.000000000000000E+000
  3.660000000000000E-006    0.000000000000000E+000
  3.680000000000000E-006    0.000000000000000E+000
  3.700000000000001E-006    0.000000000000000E+000
  3.720000000000000E-006    0.000000000000000E+000
  3.740000000000000E-006    0.000000000000000E+000
  3.760000000000000E-006    0.000000000000000E+000
  3.780000000000000E-006    0.000000000000000E+000
  3.800000000000000E-006    0.000000000000000E+000
  3.820000000000001E-006    0.000000000000000E+000
  3.840000000000001E-006    0.000000000000000E+000
  3.860000000000000E-006    0.000000000000000E+000
  3.880000000000000E-006    0.000000000000000E+000
  3.900000000000000E-006    0.000000000000000E+000
  3.920000000000000E-006    0.000000000000000E+000
  3.940000000000000E-006    0.000000000000000E+000
  3.959999999999999E-006    0.000000000000000E+000
  3.980000000000001E-006    0.000000000000000E+000
  4.000000000000001E-006    0.000000000000000E+000
  4.020000000000000E-006    0.000000000000000E+000
  4.040000000000000E-006    0.000000000000000E+000
  4.060000000000000E-006    0.000000000000000E+000
  4.080000000000000E-006    0.000000000000000E+000
  4.100000000000000E-006    0.000000000000000E+000
  4.120000000000000E-006    0.000000000000000E+000
  4.139999999999999E-006    0.000000000000000E+000
  4.160000000000001E-006    0.000000000000000E+000
  4.180000000000001E-006    0.000000000000000E+000
  4.200000000000000E-006    0.000000000000000E+000
  4.220000000000000E-006    0.000000000000000E+000
  4.240000000000000E-006    0.000000000000000E+000
  4.260000000000000E-006    0.000000000000000E+000
  4.280000000000000E-006    0.000000000000000E+000
  4.299999999999999E-006    0.000000000000000E+000
  4.320000000000001E-006    0.000000000000000E+000
  4.340000000000001E-006    0.000000000000000E+000
  4.360000000000001E-006    0.000000000000000E+000
  4.380000000000000E-006    0.000000000000000E+000
  4.400000000000000E-006    0.000000000000000E+000
  4.420000000000000E-006    0.000000000000000E+000
  4.440000000000000E-006    0.000000000000000E+000
  4.460000000000000E-006    0.000000000000000E+000
  4.479999999999999E-006    0.000000000000000E+000
  4.500000000000001E-006    0.000000000000000E+000
  4.520000000000001E-006    0.000000000000000E+000
  4.540000000000001E-006    0.000000000000000E+000
  4.560000000000000E-006    0.000000000000000E+000
  4.580000000000000E-006    0.000000000000000E+000
  4.600000000000000E-006    0.000000000000000E+000
  4.620000000000000E-006    0.000000000000000E+000
  4.640000000000000E-006    0.000000000000000E+000
  4.659999999999999E-006    0.000000000000000E+000
  4.680000000000001E-006    0.000000000000000E+000
  4.700000000000001E-006    0.000000000000000E+000
  4.720000000000001E-006    0.000000000000000E+000
  4.740000000000000E-006    0.000000000000000E+000
  4.760000000000000E-006    0.000000000000000E+000
  4.780000000000000E-006    0.000000000000000E+000
  4.800000000000000E-006    0.000000000000000E+000
  4.820000000000000E-006    0.000000000000000E+000
  4.839999999999999E-006    0.000000000000000E+000
  4.860000000000001E-006    0.000000000000000E+000
  4.880000000000001E-006    0.000000000000000E+000
  4.900000000000001E-006    0.000000000000000E+000
  4.920000000000000E-006    0.000000000000000E+000
  4.940000000000000E-006    0.000000000000000E+000
  4.960000000000000E-006    0.000000000000000E+000
  4.980000000000000E-006    0.000000000000000E+000
  5.000000000000000E-006    0.000000000000000E+000
  5.019999999999999E-006    0.000000000000000E+000
  5.040000000000001E-006    0.000000000000000E+000
  5.060000000000001E-006    0.000000000000000E+000
  5.080000000000000E-006    0.000000000000000E+000
  5.100000000000000E-006    0.000000000000000E+000
  5.120000000000000E-006    0.000000000000000E+000
  5.140000000000000E-006    0.000000000000000E+000
  5.160000000000000E-006    0.000000000000000E+000
  5.180000000000000E-006    0.000000000000000E+000
  5.199999999999999E-006    0.000000000000000E+000
  5.220000000000001E-006    0.000000000000000E+000
  5.240000000000001E-006    0.000000000000000E+000
  5.260000000000000E-006    0.000000000000000E+000
  5.280000000000000E-006    0.000000000000000E+000
  5.300000000000000E-006    0.000000000000000E+000
  5.320000000000000E-006    0.000000000000000E+000
  5.340000000000000E-006    0.000000000000000E+000
  5.360000000000000E-006    0.000000000000000E+000
  5.380000000000001E-006    0.000000000000000E+000
  5.400000000000001E-006    0.000000000000000E+000
  5.420000000000001E-006    0.000000000000000E+000
  5.440000000000000E-006    0.000000000000000E+000
  5.460000000000000E-006    0.000000000000000E+000
  5.480000000000000E-006    0.000000000000000E+000
  5.500000000000000E-006    0.000000000000000E+000
  5.520000000000000E-006    0.000000000000000E+000
  5.539999999999999E-006    0.000000000000000E+000
  5.560000000000001E-006    0.000000000000000E+000
  5.580000000000001E-006    0.000000000000000E+000
  5.600000000000001E-006    0.000000000000000E+000
  5.620000000000000E-006    0.000000000000000E+000
  5.640000000000000E-006    0.000000000000000E+000
  5.660000000000000E-006    0.000000000000000E+000
  5.680000000000000E-006    0.000000000000000E+000
  5.700000000000000E-006    0.000000000000000E+000
  5.719999999999999E-006    0.000000000000000E+000
  5.740000000000001E-006    0.000000000000000E+000
  5.760000000000001E-006    0.000000000000000E+000
  5.780000000000001E-006    0.000000000000000E+000
  5.800000000000000E-006    0.000000000000000E+000
  5.820000000000000E-006    0.000000000000000E+000
  5.840000000000000E-006    0.000000000000000E+000
  5.860000000000000E-006    0.000000000000000E+000
  5.880000000000000E-006    0.000000000000000E+000
  5.899999999999999E-006    0.000000000000000E+000
  5.920000000000001E-006    0.000000000000000E+000
  5.940000000000001E-006    0.000000000000000E+000
  5.960000000000001E-006    0.000000000000000E+000
  5.980000000000000E-006    0.000000000000000E+000
  6.000000000000000E-006    0.000000000000000E+000
  6.020000000000000E-006    0.000000000000000E+000
  6.040000000000000E-006    0.000000000000000E+000
  6.060000000000000E-006    0.000000000000000E+000
  6.079999999999999E-006    0.000000000000000E+000
  6.100000000000001E-006    0.000000000000000E+000
  6.120000000000001E-006    0.000000000000000E+000
  6.140000000000001E-006    0.000000000000000E+000
  6.160000000000000E-006    0.000000000000000E+000
  6.180000000000000E-006    0.000000000000000E+000
  6.200000000000000E-006    0.000000000000000E+000
  6.220000000000000E-006    0.000000000000000E+000
  6.240000000000000E-006    0.000000000000000E+000
  6.260000000000001E-006    0.000000000000000E+000
  6.280000000000001E-006    0.000000000000000E+000
  6.300000000000001E-006    0.000000000000000E+000
  6.320000000000000E-006    0.000000000000000E+000
  6.340000000000000E-006    0.000000000000000E+000
  6.360000000000000E-006    0.000000000000000E+000
  6.380000000000000E-006    0.000000000000000E+000
  6.400000000000000E-006    0.000000000000000E+000
  6.420000000000000E-006    0.000000000000000E+000
  6.439999999999999E-006    0.000000000000000E+000
  6.459999999999999E-006    0.000000000000000E+000
  6.480000000000001E-006    0.000000000000000E+000
  6.500000000000000E-006    0.000000000000000E+000
  6.520000000000000E-006    0.000000000000000E+000
  6.540000000000000E-006    0.000000000000000E+000
  6.560000000000000E-006    0.000000000000000E+000
  6.580000000000000E-006    0.000000000000000E+000
  6.599999999999999E-006    0.000000000000000E+000
  6.619999999999999E-006    0.000000000000000E+000
  6.639999999999999E-006    0.000000000000000E+000
  6.660000000000001E-006    0.000000000000000E+000
  6.680000000000000E-006    0.000000000000000E+000
  6.700000000000000E-006    0.000000000000000E+000
  6.720000000000000E-006    0.000000000000000E+000
  6.740000000000000E-006    0.000000000000000E+000
  6.760000000000000E-006    0.000000000000000E+000
  6.779999999999999E-006    0.000000000000000E+000
  6.799999999999999E-006    0.000000000000000E+000
  6.819999999999999E-006    0.000000000000000E+000
  6.840000000000001E-006    0.000000000000000E+000
  6.860000000000000E-006    0.000000000000000E+000
  6.880000000000000E-006    0.000000000000000E+000
  6.900000000000000E-006    0.000000000000000E+000
  6.920000000000000E-006    0.000000000000000E+000
  6.940000000000000E-006    0.000000000000000E+000
  6.959999999999999E-006    0.000000000000000E+000
  6.979999999999999E-006    0.000000000000000E+000
  6.999999999999999E-006    0.000000000000000E+000
  7.020000000000001E-006    0.000000000000000E+000
  7.040000000000000E-006    0.000000000000000E+000
  7.060000000000000E-006    0.000000000000000E+000
  7.080000000000000E-006    0.000000000000000E+000
  7.100000000000000E-006    0.000000000000000E+000
  7.120000000000000E-006    0.000000000000000E+000
  7.139999999999999E-006    0.000000000000000E+000
  7.159999999999999E-006    0.000000000000000E+000
  7.179999999999999E-006    0.000000000000000E+000
  7.200000000000001E-006    0.000000000000000E+000
  7.220000000000000E-006    0.000000000000000E+000
  7.240000000000000E-006    0.000000000000000E+000
  7.260000000000000E-006    0.000000000000000E+000
  7.280000000000000E-006    0.000000000000000E+000
  7.300000000000000E-006    0.000000000000000E+000
  7.319999999999999E-006    0.000000000000000E+000
  7.339999999999999E-006    0.000000000000000E+000
  7.359999999999999E-006    0.000000000000000E+000
  7.380000000000000E-006    0.000000000000000E+000
  7.400000000000000E-006    0.000000000000000E+000
  7.420000000000000E-006    0.000000000000000E+000
  7.440000000000000E-006    0.000000000000000E+000
  7.460000000000000E-006    0.000000000000000E+000
  7.480000000000000E-006    0.000000000000000E+000
  7.499999999999999E-006    0.000000000000000E+000
  7.519999999999999E-006    0.000000000000000E+000
  7.540000000000001E-006    0.000000000000000E+000
  7.560000000000000E-006    0.000000000000000E+000
  7.580000000000000E-006    0.000000000000000E+000
  7.600000000000000E-006    6.602039704565122E-040
  7.620000000000000E-006    5.147479823905799E-039
  7.640000000000000E-006    6.450543865591936E-039
  7.660000000000000E-006   -2.251238957170196E-038
  7.679999999999999E-006   -3.383635256866413E-038
  7.699999999999999E-006    5.930226630762303E-038
  7.720000000000001E-006    8.900953964530662E-038
  7.740000000000000E-006   -1.386448520577458E-037
  7.760000000000000E-006   -2.611451900019692E-037
  7.780000000000000E-006   -4.018494775363984E-037
  7.800000000000000E-006   -5.071936991418738E-037
  7.820000000000000E-006   -9.108348246750506E-037
  7.839999999999999E-006   -2.186679163332318E-036
  7.859999999999999E-006   -2.654895191608273E-036
  7.879999999999999E-006   -1.011080048301670E-036
  7.900000000000001E-006    1.344154382203371E-036
  7.920000000000000E-006    2.845829447980741E-036
  7.940000000000000E-006    6.007790100470449E-036
  7.960000000000000E-006    7.285571007453325E-036
  7.980000000000000E-006   -1.746233705569078E-036
  8.000000000000000E-006   -1.825718758418873E-035
  8.019999999999999E-006   -2.653384431731462E-035
  8.039999999999999E-006   -1.227909962459582E-035
  8.059999999999999E-006    2.839047744705805E-035
  8.080000000000001E-006    7.866336983379177E-035
  8.100000000000000E-006    9.524650173898358E-035
  8.120000000000000E-006    2.704212156196147E-035
  8.140000000000000E-006   -1.381104210424292E-034
  8.160000000000000E-006   -3.179728727473069E-034
  8.180000000000000E-006   -3.326861729782882E-034
  8.199999999999999E-006   -7.155857721670811E-036
  8.219999999999999E-006    6.416196112903807E-034
  8.239999999999999E-006    1.239593446030484E-033
  8.260000000000001E-006    1.105387467967060E-033
  8.280000000000000E-006   -3.253595018305464E-034
  8.300000000000000E-006   -2.789898018142729E-033
  8.320000000000000E-006   -4.685328149041345E-033
  8.340000000000000E-006   -3.477457909728090E-033
  8.360000000000000E-006    2.524125624243342E-033
  8.379999999999999E-006    1.160375400011549E-032
  8.399999999999999E-006    1.722449472141539E-032
  8.419999999999999E-006    1.028817969963486E-032
  8.440000000000001E-006   -1.384565206632963E-032
  8.460000000000000E-006   -4.640981061799073E-032
  8.480000000000000E-006   -6.177953737104620E-032
  8.500000000000000E-006   -2.812870623678653E-032
  8.520000000000000E-006    6.574252043070473E-032
  8.540000000000000E-006    1.799547824822207E-031
  8.559999999999999E-006    2.171394895362090E-031
  8.579999999999999E-006    6.845664402770925E-032
  8.600000000000001E-006   -2.868659013179246E-031
  8.620000000000000E-006   -6.802878871014567E-031
  8.640000000000000E-006   -7.511634191677053E-031
  8.660000000000000E-006   -1.338298942499313E-031
  8.680000000000000E-006    1.181725452013521E-030
  8.700000000000000E-006    2.519168154376220E-030
  8.720000000000000E-006    2.569904101315956E-030
  8.739999999999999E-006    1.208967143345367E-031
  8.759999999999999E-006   -4.663381810483226E-030
  8.780000000000001E-006   -9.174018660547611E-030
  8.800000000000000E-006   -8.740422638368649E-030
  8.820000000000000E-006    6.348999222784731E-031
  8.840000000000000E-006    1.778716648875642E-029
  8.860000000000000E-006    3.296495899978489E-029
  8.880000000000000E-006    2.971087515356773E-029
  8.899999999999999E-006   -5.147051302147560E-030
  8.919999999999999E-006   -6.595201456411611E-029
  8.939999999999999E-006   -1.171996800607495E-028
  8.960000000000001E-006   -1.014660960712997E-028
  8.980000000000000E-006    2.494176389914692E-029
  9.000000000000000E-006    2.386053149259690E-028
  9.020000000000000E-006    4.131477443897363E-028
  9.040000000000000E-006    3.496664885254548E-028
  9.060000000000000E-006   -9.863445345473922E-029
  9.079999999999999E-006   -8.441579380935535E-028
  9.099999999999999E-006   -1.446130595050416E-027
  9.119999999999999E-006   -1.219469956714538E-027
  9.140000000000001E-006    3.375081639459822E-028
  9.160000000000000E-006    2.923146944567353E-027
  9.180000000000000E-006    5.029487374534384E-027
  9.200000000000000E-006    4.307916252470091E-027
  9.220000000000000E-006   -9.886792935378396E-028
  9.240000000000000E-006   -9.904046068319162E-027
  9.259999999999999E-006   -1.737764713887155E-026
  9.279999999999999E-006   -1.539526386424184E-026
  9.299999999999999E-006    2.233940049360971E-027
  9.320000000000001E-006    3.277527308360432E-026
  9.340000000000000E-006    5.959107732590718E-026
  9.360000000000000E-006    5.548496059307738E-026
  9.380000000000000E-006   -1.776593944038873E-027
  9.400000000000000E-006   -1.055693719190145E-025
  9.420000000000000E-006   -2.024438178448414E-025
  9.439999999999999E-006   -2.007735787460406E-025
  9.459999999999999E-006   -2.009912856672878E-026
  9.479999999999999E-006    3.289971310708832E-025
  9.500000000000001E-006    6.794985876098028E-025
  9.520000000000000E-006    7.257347816427486E-025
  9.540000000000000E-006    1.761609667241814E-025
  9.560000000000000E-006   -9.821093940000124E-025
  9.580000000000000E-006   -2.245191871292268E-024
  9.600000000000000E-006   -2.606829068412920E-024
  9.619999999999999E-006   -1.015846272540330E-024
  9.639999999999999E-006    2.759068770651417E-024
  9.660000000000001E-006    7.268053126070777E-024
  9.680000000000000E-006    9.256916983178291E-024
  9.700000000000000E-006    4.976211858574796E-024
  9.720000000000000E-006   -7.041181070310812E-024
  9.740000000000000E-006   -2.290365610970962E-023
  9.760000000000000E-006   -3.233180551078123E-023
  9.780000000000000E-006   -2.216528426942373E-023
  9.799999999999999E-006    1.492286420989130E-023
  9.819999999999999E-006    6.963418593412104E-023
  9.840000000000001E-006    1.104937757332567E-022
  9.860000000000000E-006    9.228101250564201E-023
  9.880000000000000E-006   -1.747253639441876E-023
  9.900000000000000E-006   -2.014870778231639E-022
  9.920000000000000E-006   -3.673649159227528E-022
  9.940000000000000E-006   -3.637935411692734E-022
  9.960000000000000E-006   -5.779038969411520E-023
  9.979999999999999E-006    5.419919490752863E-022
  9.999999999999999E-006    1.180024395922728E-021
  1.002000000000000E-005    1.366266503671938E-021
  1.004000000000000E-005    5.883635130723068E-022
  1.006000000000000E-005   -1.291156932527317E-021
  1.008000000000000E-005   -3.627842164850668E-021
  1.010000000000000E-005   -4.897771391434644E-021
  1.012000000000000E-005   -3.229458525495013E-021
  1.014000000000000E-005    2.368990750737771E-021
  1.016000000000000E-005    1.052473282209735E-020
  1.018000000000000E-005    1.673847440354330E-020
  1.020000000000000E-005    1.451408157029116E-020
  1.022000000000000E-005   -1.045990741571248E-021
  1.024000000000000E-005   -2.810792954023697E-020
  1.026000000000000E-005   -5.429366604717371E-020
  1.028000000000000E-005   -5.821180775941935E-020
  1.030000000000000E-005   -1.926350314058304E-020
  1.032000000000000E-005    6.556605885600706E-020
  1.034000000000000E-005    1.656677938820555E-019
  1.036000000000000E-005    2.146136056616285E-019
  1.038000000000000E-005    1.341686198794271E-019
  1.040000000000000E-005   -1.139951144103129E-019
  1.042000000000000E-005   -4.676870684227619E-019
  1.044000000000000E-005   -7.347280478186680E-019
  1.046000000000000E-005   -6.411728362476121E-019
  1.048000000000000E-005    2.053200925249773E-020
  1.050000000000000E-005    1.180970411768079E-018
  1.052000000000000E-005    2.334519403283861E-018
  1.054000000000000E-005    2.592105922739717E-018