 -1.200000000000000E-006    0.000000000000000E+000
 -1.180000000000000E-006    0.000000000000000E+000
 -1.160000000000000E-006    0.000000000000000E+000
 -1.140000000000000E-006    0.000000000000000E+000
 -1.120000000000000E-006    0.000000000000000E+000
 -1.100000000000000E-006    0.000000000000000E+000
 -1.080000000000000E-006    0.000000000000000E+000
 -1.060000000000000E-006    0.000000000000000E+000
 -1.040000000000000E-006    0.000000000000000E+000
 -1.020000000000000E-006    0.000000000000000E+000
 -1.000000000000000E-006    0.000000000000000E+000
 -9.799999999999999E-007    0.000000000000000E+000
 -9.599999999999999E-007    0.000000000000000E+000
 -9.399999999999999E-007    0.000000000000000E+000
 -9.199999999999999E-007    0.000000000000000E+000
 -9.000000000000000E-007    0.000000000000000E+000
 -8.799999999999999E-007    0.000000000000000E+000
 -8.599999999999999E-007    0.000000000000000E+000
 -8.400000000000000E-007    0.000000000000000E+000
 -8.200000000000000E-007    0.000000000000000E+000
 -8.000000000000000E-007    0.000000000000000E+000
 -7.799999999999999E-007    0.000000000000000E+000
 -7.599999999999999E-007    0.000000000000000E+000
 -7.399999999999999E-007    0.000000000000000E+000
 -7.199999999999999E-007    0.000000000000000E+000
 -7.000000000000000E-007    0.000000000000000E+000
 -6.799999999999999E-007    0.000000000000000E+000
 -6.599999999999999E-007    0.000000000000000E+000
 -6.399999999999999E-007    0.000000000000000E+000
 -6.199999999999999E-007    0.000000000000000E+000
 -6.000000000000000E-007    0.000000000000000E+000
 -5.800000000000000E-007    0.000000000000000E+000
 -5.599999999999999E-007    0.000000000000000E+000
 -5.399999999999999E-007    0.000000000000000E+000
 -5.199999999999999E-007    0.000000000000000E+000
 -5.000000000000000E-007    0.000000000000000E+000
 -4.800000000000000E-007    0.000000000000000E+000
 -4.599999999999999E-007    0.000000000000000E+000
 -4.399999999999999E-007    0.000000000000000E+000
 -4.199999999999999E-007    0.000000000000000E+000
 -4.000000000000000E-007    0.000000000000000E+000
 -3.800000000000000E-007    0.000000000000000E+000
 -3.599999999999999E-007    0.000000000000000E+000
 -3.399999999999999E-007    0.000000000000000E+000
 -3.199999999999999E-007    0.000000000000000E+000
 -2.999999999999999E-007    0.000000000000000E+000
 -2.800000000000000E-007    0.000000000000000E+000
 -2.599999999999999E-007    0.000000000000000E+000
 -2.399999999999998E-007    0.000000000000000E+000
 -2.200000000000000E-007    0.000000000000000E+000
 -2.000000000000000E-007    0.000000000000000E+000
 -1.800000000000000E-007    0.000000000000000E+000
 -1.600000000000000E-007    0.000000000000000E+000
 -1.399999999999999E-007    0.000000000000000E+000
 -1.199999999999999E-007    0.000000000000000E+000
 -9.999999999999989E-008    0.000000000000000E+000
 -7.999999999999987E-008    0.000000000000000E+000
 -5.999999999999985E-008    0.000000000000000E+000
 -3.999999999999983E-008    0.000000000000000E+000
 -2.000000000000002E-008    0.000000000000000E+000
  0.000000000000000E+000    0.000000000000000E+000
  2.000000000000002E-008    0.000000000000000E+000
  4.000000000000004E-008    0.000000000000000E+000
  6.000000000000006E-008    0.000000000000000E+000
  8.000000000000008E-008    0.000000000000000E+000
  1.000000000000001E-007    0.000000000000000E+000
  1.200000000000001E-007    0.000000000000000E+000
  1.400000000000001E-007    0.000000000000000E+000
  1.600000000000002E-007    0.000000000000000E+000
  1.800000000000002E-007    0.000000000000000E+000
  2.000000000000000E-007    0.000000000000000E+000
  2.200000000000000E-007    0.000000000000000E+000
  2.400000000000000E-007    0.000000000000000E+000
  2.600000000000001E-007    0.000000000000000E+000
  2.800000000000001E-007    0.000000000000000E+000
  3.000000000000001E-007    0.000000000000000E+000
  3.200000000000001E-007    0.000000000000000E+000
  3.400000000000001E-007    0.000000000000000E+000
  3.600000000000002E-007    0.000000000000000E+000
  3.800000000000002E-007    0.000000000000000E+000
  4.000000000000000E-007    0.000000000000000E+000
  4.200000000000000E-007    0.000000000000000E+000
  4.400000000000000E-007   -7.730343344439419E-039
  4.600000000000000E-007    1.000750116233364E-038
  4.800000000000001E-007   -4.481798845184266E-038
  5.000000000000001E-007    1.530893221661655E-038
  5.200000000000001E-007    1.939771951784911E-037
  5.400000000000001E-007   -6.020825032536817E-037
  5.600000000000001E-007    1.601211313921986E-036
  5.800000000000002E-007   -6.816456468764035E-037
  6.000000000000002E-007   -4.294525318683763E-036
  6.200000000000000E-007    1.343449944280351E-035
  6.400000000000000E-007   -1.521024864585289E-035
  6.600000000000000E-007   -9.385232119873384E-036
  6.800000000000001E-007    6.892631489360698E-035
  7.000000000000001E-007   -1.204080446637464E-034
  7.200000000000003E-007    4.200861841057053E-035
  7.400000000000001E-007    2.834555074822265E-034
  7.599999999999999E-007   -7.187411133043443E-034
  7.800000000000002E-007    6.082178843474651E-034
  8.000000000000000E-007    9.107918370570491E-034
  8.200000000000002E-007   -3.562448708242848E-033
  8.400000000000000E-007    4.344453297255173E-033
  8.600000000000002E-007    1.667289142497976E-033
  8.800000000000000E-007   -1.543834487516249E-032
  9.000000000000003E-007    2.476567805169101E-032
  9.200000000000001E-007   -3.476782691228251E-033
  9.399999999999999E-007   -6.168393377617845E-032
  9.600000000000001E-007    1.203464067057244E-031
  9.799999999999999E-007   -5.063735837860694E-032
  1.000000000000000E-006   -2.214312606802405E-031
  1.020000000000000E-006    5.172638750285467E-031
  1.040000000000000E-006   -3.429222947924470E-031
  1.060000000000000E-006   -7.253692641056262E-031
  1.080000000000000E-006    2.123904257479705E-030
  1.100000000000000E-006   -1.742601294344080E-030
  1.120000000000000E-006   -2.378285392944653E-030
  1.140000000000000E-006    8.089619332866818E-030
  1.160000000000000E-006   -7.418982680928274E-030
  1.180000000000000E-006   -7.325998972742372E-030
  1.200000000000000E-006    2.941386869387570E-029
  1.220000000000000E-006   -2.876971737157669E-029
  1.240000000000000E-006   -2.354596569489619E-029
  1.260000000000000E-006    9.980122687925999E-029
  1.280000000000000E-006   -1.017881929865403E-028
  1.300000000000000E-006   -6.249408510216528E-029
  1.320000000000000E-006    3.386904834219762E-028
  1.340000000000000E-006   -3.776005771375794E-028
  1.360000000000000E-006   -2.463029230607534E-028
  1.380000000000000E-006    1.157079066381409E-027
  1.400000000000000E-006   -1.019348061335530E-027
  1.420000000000000E-006   -7.946161644199179E-028
  1.440000000000000E-006    3.202192234684588E-027
  1.460000000000000E-006   -3.542415867090186E-027
  1.480000000000000E-006   -2.199420503556065E-027
  1.500000000000000E-006    1.142101109622123E-026
  1.520000000000000E-006   -8.894597488458891E-027
  1.540000000000000E-006   -9.949586018102248E-027
  1.560000000000000E-006    2.655404684345303E-026
  1.580000000000000E-006   -2.687957924410754E-026
  1.600000000000000E-006   -1.645933398809796E-026
  1.620000000000000E-006    1.048907852171007E-025
  1.640000000000000E-006   -6.998799437566958E-026
  1.660000000000000E-006   -1.403767235486452E-025
  1.680000000000000E-006    1.799818390173811E-025
  1.700000000000000E-006   -6.437294613120913E-026
  1.720000000000000E-006   -5.737915342188608E-027
  1.740000000000000E-006    6.486617528260037E-025
  1.760000000000000E-006   -8.379131513192846E-025
  1.780000000000000E-006   -1.295455159861321E-024
  1.800000000000000E-006    1.847136356204625E-024
  1.820000000000000E-006    9.613400172443905E-025
  1.840000000000000E-006   -4.706371705976762E-025
  1.860000000000000E-006    1.627613671791871E-024
  1.880000000000000E-006   -6.312867324810612E-024
  1.900000000000000E-006   -6.351680740416803E-024
  1.920000000000000E-006    1.454358746893737E-023
  1.940000000000000E-006    9.136608689018357E-024
  1.960000000000000E-006   -5.570969489109953E-024
  1.980000000000000E-006    4.356028831342808E-025
  2.000000000000000E-006   -3.953327964122869E-023
  2.020000000000000E-006   -3.484007279291242E-023
  2.040000000000000E-006    8.555965987452482E-023
  2.060000000000000E-006    7.976538894116297E-023
  2.080000000000000E-006   -5.268733153440755E-024
  2.100000000000000E-006   -3.882229913571964E-023
  2.120000000000000E-006   -2.767134960250394E-022
  2.140000000000000E-006   -2.370953312785866E-022
  2.160000000000000E-006    4.137323972977246E-022
  2.180000000000000E-006    5.985402994410317E-022
  2.200000000000000E-006    3.682309315141730E-022
  2.220000000000000E-006   -7.867483066818439E-023
  2.240000000000000E-006   -1.840393935113738E-021
  2.260000000000000E-006   -2.329495931089245E-021
  2.280000000000000E-006    7.594382480497730E-022
  2.300000000000000E-006    3.994684051030604E-021
  2.320000000000000E-006    6.142338669979032E-021
  2.340000000000000E-006    3.497243872278733E-021
  2.360000000000000E-006   -1.019653182487055E-020
  2.380000000000000E-006   -2.121309066845716E-020
  2.400000000000000E-006   -1.213063867533430E-020
  2.420000000000000E-006    1.542744535935988E-020
  2.440000000000000E-006    5.426711527813912E-020
  2.460000000000000E-006    6.266749340780551E-020
  2.480000000000000E-006   -1.460374815948901E-020
  2.500000000000000E-006   -1.375513534872764E-019
  2.520000000000000E-006   -1.958245143752372E-019
  2.540000000000000E-006   -7.598281208832673E-020
  2.560000000000000E-006    2.739059396111847E-019
  2.580000000000000E-006    6.054367890928671E-019
  2.600000000000000E-006    4.494119563769587E-019
  2.620000000000000E-006   -3.752592434054681E-019
  2.640000000000001E-006   -1.488121710126836E-018
  2.660000000000000E-006   -1.824438372694147E-018
  2.680000000000000E-006   -1.778213841509453E-019
  2.700000000000000E-006    3.122747666285595E-018
  2.720000000000000E-006    5.537335855273078E-018
  2.740000000000000E-006    3.615523927997559E-018
  2.760000000000000E-006   -4.295389763650723E-018
  2.780000000000000E-006   -1.409267871139182E-017
  2.800000000000000E-006   -1.577712959073312E-017
  2.820000000000001E-006   -9.530812253860008E-019
  2.840000000000000E-006    2.736921360838247E-017
  2.860000000000000E-006    4.877410198281770E-017
  2.880000000000000E-006    3.307152496683345E-017
  2.900000000000000E-006   -3.207499238547681E-017
  2.920000000000000E-006   -1.145711532858384E-016
  2.940000000000000E-006   -1.396418579149680E-016
  2.960000000000000E-006   -3.387871704890190E-017
  2.980000000000000E-006    1.923729549893472E-016
  3.000000000000000E-006    3.910034811573050E-016
  3.020000000000000E-006    3.345227067262421E-016
  3.040000000000000E-006   -1.122020775705641E-016
  3.060000000000000E-006   -7.847406492907875E-016
  3.080000000000000E-006   -1.160397505786459E-015
  3.100000000000000E-006   -6.441034962003569E-016
  3.120000000000000E-006    8.899231741695640E-016
  3.140000000000000E-006    2.658336716652684E-015
  3.160000000000000E-006    3.085970068571900E-015
  3.180000000000000E-006    8.203171523609443E-016
  3.200000000000000E-006   -3.786060166125904E-015
  3.220000000000000E-006   -7.931006202570197E-015
  3.240000000000000E-006   -7.410600420501439E-015
  3.260000000000001E-006    3.078169883674532E-016
  3.280000000000000E-006    1.257827336124512E-014
  3.300000000000000E-006    2.098764686654982E-014
  3.320000000000000E-006    1.580203876942756E-014
  3.340000000000000E-006   -5.928421925699520E-015
  3.360000000000000E-006   -3.387058439394789E-014
  3.380000000000000E-006   -4.711710514282443E-014
  3.400000000000000E-006   -2.845639038583998E-014
  3.420000000000000E-006    1.854059876251431E-014
  3.440000000000001E-006    6.466679763863420E-014
  3.460000000000000E-006    7.383933395801639E-014
  3.480000000000000E-006    3.805378708019286E-014
  3.500000000000000E-006   -4.829925963494815E-015
  3.520000000000000E-006   -3.365972622232538E-015
  3.540000000000000E-006    3.265405750909530E-014
  3.560000000000000E-006   -1.777627744884317E-014
  3.580000000000000E-006   -3.097916930746898E-013
  3.600000000000000E-006   -7.974693652473244E-013
  3.620000000000000E-006   -1.000220921418337E-012
  3.640000000000000E-006   -9.711639565689288E-014
  3.660000000000000E-006    2.385392937536817E-012
  3.680000000000000E-006    5.474168021522691E-012
  3.700000000000001E-006    6.145535044844857E-012
  3.720000000000000E-006    5.105745454615125E-013
  3.740000000000000E-006   -1.263647315854422E-011
  3.760000000000000E-006   -2.739437297016075E-011
  3.780000000000000E-006   -2.946501416222826E-011
  3.800000000000000E-006   -2.660321747168929E-012
  3.820000000000001E-006    5.588189730344647E-011
  3.840000000000001E-006    1.190775865663162E-010
  3.860000000000000E-006    1.276016441490014E-010
  3.880000000000000E-006    1.799683096100448E-011
  3.900000000000000E-006   -2.182663425098078E-010
  3.920000000000000E-006   -4.742421965076880E-010
  3.940000000000000E-006   -5.228336873087100E-010
  3.959999999999999E-006   -1.228012189500695E-010
  3.980000000000001E-006    7.664636554786924E-010
  4.000000000000001E-006    1.766963854891498E-009
  4.020000000000000E-006    2.059723125464991E-009
  4.040000000000000E-006    7.460535289923535E-010
  4.060000000000000E-006   -2.409294753087076E-009
  4.080000000000000E-006   -6.199071980399460E-009
  4.100000000000000E-006   -7.820440658641341E-009
  4.120000000000000E-006   -3.996901797988213E-009
  4.139999999999999E-006    6.564003780657636E-009
  4.160000000000001E-006    2.042223237678657E-008
  4.180000000000001E-006    2.848666245620395E-008
  4.200000000000000E-006    1.915598271442033E-008
  4.220000000000000E-006   -1.393749621739193E-008
  4.240000000000000E-006   -6.246166591001150E-008
  4.260000000000000E-006   -9.870675210367179E-008
  4.280000000000000E-006   -8.320099427020868E-008
  4.299999999999999E-006    1.225867335530147E-008
  4.320000000000001E-006    1.731858160397135E-007
  4.340000000000001E-006    3.215448437050702E-007
  4.360000000000001E-006    3.298666232301415E-007
  4.380000000000000E-006    8.483659960706958E-008
  4.400000000000000E-006   -4.135217389766134E-007
  4.420000000000000E-006   -9.685659139914665E-007
  4.440000000000000E-006   -1.195303971099195E-006
  4.460000000000000E-006   -6.787063463586332E-007
  4.479999999999999E-006    7.329815736815318E-007
  4.500000000000001E-006    2.627227254019455E-006
  4.520000000000001E-006    3.938415483536482E-006
  4.540000000000001E-006    3.282051873594169E-006
  4.560000000000000E-006   -2.482197201518789E-007
  4.580000000000000E-006   -6.093106259696515E-006
  4.600000000000000E-006   -1.163889665976384E-005
  4.620000000000000E-006   -1.271229733526213E-005
  4.640000000000000E-006   -5.510387738668731E-006
  4.659999999999999E-006    1.047546423231414E-005
  4.680000000000001E-006    2.995788529666125E-005
  4.700000000000001E-006    4.177802309603648E-005
  4.720000000000001E-006    3.281975306040990E-005
  4.740000000000000E-006   -4.300111802929500E-006
  4.760000000000000E-006   -6.266809730976835E-005
  4.780000000000000E-006   -1.168519617084080E-004
  4.800000000000000E-006   -1.284123562838165E-004
  4.820000000000000E-006   -6.325084883082664E-005
  4.839999999999999E-006    8.363346106366392E-005
  4.860000000000001E-006    2.677126631242422E-004
  4.880000000000001E-006    3.943486539493115E-004
  4.900000000000001E-006    3.495571354770646E-004
  4.920000000000000E-006    6.016311045176938E-005
  4.940000000000000E-006   -4.379539077622451E-004
  4.960000000000000E-006   -9.610979063633648E-004
  4.980000000000000E-006   -1.207685706679517E-003
  5.000000000000000E-006   -8.748105478785970E-004
  5.019999999999999E-006    1.632393762180913E-004
  5.040000000000001E-006    1.688025655535972E-003
  5.060000000000001E-006    3.084292791748955E-003
  5.080000000000000E-006    3.487848802168291E-003
  5.100000000000000E-006    2.146880823706889E-003
  5.120000000000000E-006   -1.104322576590492E-003
  5.140000000000000E-006   -5.468237076433653E-003
  5.160000000000000E-006   -9.152294109456945E-003
  5.180000000000000E-006   -9.853060502210945E-003
  5.199999999999999E-006   -5.725959395488273E-003
  5.220000000000001E-006    3.454721589024629E-003
  5.240000000000001E-006    1.545589869398398E-002
  5.260000000000000E-006    2.561331640787450E-002
  5.280000000000000E-006    2.805464748724336E-002
  5.300000000000000E-006    1.799352334046115E-002
  5.320000000000000E-006   -5.572948227368091E-003
  5.340000000000000E-006   -3.783717324594919E-002
  5.360000000000000E-006   -6.795285460911080E-002
  5.380000000000001E-006   -8.132676321038047E-002
  5.400000000000001E-006   -6.434448534199716E-002
  5.420000000000001E-006   -1.047322831773792E-002
  5.440000000000000E-006    7.413745601099053E-002
  5.460000000000000E-006    0.167814022043238     
  5.480000000000000E-006    0.235300123540255     
  5.500000000000000E-006    0.235616778048889     
  5.520000000000000E-006    0.135505840975369     
  5.539999999999999E-006   -7.382527035876207E-002
  5.560000000000001E-006   -0.361126985630435     
  5.580000000000001E-006   -0.647116980015078     
  5.600000000000001E-006   -0.811314642779127     
  5.620000000000000E-006   -0.719382809988929     
  5.640000000000000E-006   -0.271565449633491     
  5.660000000000000E-006    0.536091916071326     
  5.680000000000000E-006     1.55699379561373     
  5.700000000000000E-006     2.47382569773463     
  5.719999999999999E-006     2.84186390736848     
  5.740000000000001E-006     2.21193789273270     
  5.760000000000001E-006    0.321212366840921     
  5.780000000000001E-006    -2.69777922070277     
  5.800000000000000E-006    -6.17366746656115     
  5.820000000000000E-006    -8.91401796640343     
  5.840000000000000E-006    -9.45296776897901     
  5.860000000000000E-006    -6.52610174324738     
  5.880000000000000E-006    0.331452426205544     
  5.899999999999999E-006     10.2645568520555     
  5.920000000000001E-006     20.9010957896880     
  5.940000000000001E-006     28.6774208048780     
  5.960000000000001E-006     29.7333353735833     
  5.980000000000000E-006     21.1997683579407     
  6.000000000000000E-006     2.48318848260384     
  6.020000000000000E-006    -23.9621130750978     
  6.040000000000000E-006    -52.8083614316713     
  6.060000000000000E-006    -77.1241071978488     
  6.079999999999999E-006    -90.4617683063922     
  6.100000000000001E-006    -89.0732016980534     
  6.120000000000001E-006    -73.3498330895146     
  6.140000000000001E-006    -47.7134133469993     
  6.160000000000000E-006    -18.6752238746716     
  6.180000000000000E-006     8.50723740989132     
  6.200000000000000E-006     33.5061994299488     
  6.220000000000000E-006     63.5988800811128     
  6.240000000000000E-006     114.319648098505     
  6.260000000000001E-006     207.947018593209     
  6.280000000000001E-006     370.805925195080     
  6.300000000000001E-006     631.274993226753     
  6.320000000000000E-006     1020.57382337942     
  6.340000000000000E-006     1577.66675771139     
  6.360000000000000E-006     2358.05007496200     
  6.380000000000000E-006     3444.38662074507     
  6.400000000000000E-006     4955.67622651872     
  6.420000000000000E-006     7051.44834014872     
  6.439999999999999E-006     9928.66194775108     
  6.459999999999999E-006     13811.2589432773     
  6.480000000000001E-006     18934.3987065358     
  6.500000000000000E-006     25526.5077746837     
  6.520000000000000E-006     33792.0598506701     
  6.540000000000000E-006     43895.2758883973     
  6.560000000000000E-006     55942.2522978112     
  6.580000000000000E-006     69956.6451869453     
  6.599999999999999E-006     85843.1755708498     
  6.619999999999999E-006     103336.534083479     
  6.639999999999999E-006     121937.991599151     
  6.660000000000001E-006     140847.990673734     
  6.680000000000000E-006     158908.390224240     
  6.700000000000000E-006     174571.378913230     
  6.720000000000000E-006     185907.517759918     
  6.740000000000000E-006     190662.033610482     
  6.760000000000000E-006     186362.478130810     
  6.779999999999999E-006     170472.867082285     
  6.799999999999999E-006     140587.246139919     
  6.819999999999999E-006     94653.4376827270     
  6.840000000000001E-006     31216.7686134427     
  6.860000000000000E-006    -50326.0288231958     
  6.880000000000000E-006    -149476.066396818     
  6.900000000000000E-006    -264406.570117612     
  6.920000000000000E-006    -391789.732128816     
  6.940000000000000E-006    -526712.206617140     
  6.959999999999999E-006    -662714.263024506     
  6.979999999999999E-006    -791980.627118557     
  6.999999999999999E-006    -905692.161771356     
  7.020000000000001E-006    -994530.260587374     
  7.040000000000000E-006    -1049300.36405644     
  7.060000000000000E-006    -1061634.72962392     
  7.080000000000000E-006    -1024715.45205350     
  7.100000000000000E-006    -933967.077852091     
  7.120000000000000E-006    -787661.441817847     
  7.139999999999999E-006    -587387.782292695     
  7.159999999999999E-006    -338329.754703890     
  7.179999999999999E-006    -49298.9000235321     
  7.200000000000001E-006     267522.517117643     
  7.220000000000000E-006     597142.294079747     
  7.240000000000000E-006     922618.400765241     
  7.260000000000000E-006     1226165.96773240     
  7.280000000000000E-006     1490397.61720582     
  7.300000000000000E-006     1699582.22439343     
  7.319999999999999E-006     1840797.72798968     
  7.339999999999999E-006     1904864.61874722     
  7.359999999999999E-006     1887000.42369313     
  7.380000000000000E-006     1787144.36965508     
  7.400000000000000E-006     1609963.81124801     
  7.420000000000000E-006     1364560.41163374     
  7.440000000000000E-006     1063884.17352375     
  7.460000000000000E-006     723884.533988951     
  7.480000000000000E-006     362451.252989065     
  7.499999999999999E-006    -1787.99775987468     
  7.519999999999999E-006    -350713.350527961     
  7.540000000000001E-006    -667894.110340940     
  7.560000000000000E-006    -939596.680963992     
  7.580000000000000E-006    -1155518.87411584     
  7.600000000000000E-006    -1309208.90213268     
  7.620000000000000E-006    -1398163.52465518     
  7.640000000000000E-006    -1423630.55032311     
  7.660000000000000E-006    -1390180.27551426     
  7.679999999999999E-006    -1305101.65245291     
  7.699999999999999E-006    -1177686.52417095     
  7.720000000000001E-006    -1018478.72175574     
  7.740000000000000E-006    -838513.291144713     
  7.760000000000000E-006    -648591.661284720     
  7.780000000000000E-006    -458650.769230073     
  7.800000000000000E-006    -277263.177700107     
  7.820000000000000E-006    -111289.156827589     
  7.839999999999999E-006     34296.9516051216     
  7.859999999999999E-006     156409.967746903     
  7.879999999999999E-006     253694.845029055     
  7.900000000000001E-006     326243.758641436     
  7.920000000000000E-006     375256.191123427     
  7.940000000000000E-006     402680.519362777     
  7.960000000000000E-006     410906.427538634     
  7.980000000000000E-006     402585.823633448     
  8.000000000000000E-006     380567.927710011     
  8.019999999999999E-006     347882.400272787     
  8.039999999999999E-006     307715.107726018     
  8.059999999999999E-006     263312.957597653     
  8.080000000000001E-006     217805.773933148     
  8.100000000000000E-006     173984.376276869     
  8.120000000000000E-006     134096.373099687     
  8.140000000000000E-006     99750.7052271761     
  8.160000000000000E-006     71932.3481595855     
  8.180000000000000E-006     51024.2661247776     
  8.199999999999999E-006     36804.6922228156     
  8.219999999999999E-006     28426.7419658322     
  8.239999999999999E-006     24384.2344440510     
  8.260000000000001E-006     22566.2361951669     
  8.280000000000000E-006     20510.7511048422     
  8.300000000000000E-006     15862.8667137421     
  8.320000000000000E-006     6954.53473712619     
  8.340000000000000E-006    -6689.46718104567     
  8.360000000000000E-006    -24106.4669830853     
  8.379999999999999E-006    -42977.9650174455     
  8.399999999999999E-006    -60077.1896152469     
  8.419999999999999E-006    -71995.6118732122     
  8.440000000000001E-006    -75880.9432552435     
  8.460000000000000E-006    -70004.1699283188     
  8.480000000000000E-006    -54101.6858481810     
  8.500000000000000E-006    -29469.2835825597     
  8.520000000000000E-006     1120.34316692719     
  8.540000000000000E-006     33616.9149229688     
  8.559999999999999E-006     63048.5825923320     
  8.579999999999999E-006     84087.3807053106     
  8.600000000000001E-006     91907.1244995183     
  8.620000000000000E-006     83287.2796963579     
  8.640000000000000E-006     57624.4774508959     
  8.660000000000000E-006     17492.1202325375     
  8.680000000000000E-006    -31479.0548130330     
  8.700000000000000E-006    -81491.9923938413     
  8.720000000000000E-006    -123995.036045771     
  8.739999999999999E-006    -151158.612668594     
  8.759999999999999E-006    -157115.873629562     
  8.780000000000001E-006    -138840.121069268     
  8.800000000000000E-006    -96689.6772685486     
  8.820000000000000E-006    -34690.9149165158     
  8.840000000000000E-006     39557.1125141707     
  8.860000000000000E-006     115527.940298724     
  8.880000000000000E-006     181063.860860435     
  8.899999999999999E-006     224331.021241032     
  8.919999999999999E-006     236058.247764784     
  8.939999999999999E-006     211414.041108934     
  8.960000000000001E-006     151114.937556375     
  8.980000000000000E-006     61627.2807385083     
  9.000000000000000E-006    -45533.0675811687     
  9.020000000000000E-006    -155266.439935756     
  9.040000000000000E-006    -250970.126622570     
  9.060000000000000E-006    -316995.547593891     
  9.079999999999999E-006    -341108.307009963     
  9.099999999999999E-006    -316595.060823072     
  9.119999999999999E-006    -243599.125097520     
  9.140000000000001E-006    -129347.065210979     
  9.160000000000000E-006     12617.4962215009     
  9.180000000000000E-006     163891.802370003     
  9.200000000000000E-006     303288.164687502     
  9.220000000000000E-006     409546.149672900     
  9.240000000000000E-006     464560.004666026     
  9.259999999999999E-006     456627.014728291     
  9.279999999999999E-006     382874.070466313     
  9.299999999999999E-006     250144.041526535     
  9.320000000000001E-006     74093.5089647874     
  9.340000000000000E-006    -123163.260456559     
  9.360000000000000E-006    -316013.364420848     
  9.380000000000000E-006    -478232.161663662     
  9.400000000000000E-006    -585846.620250837     
  9.420000000000000E-006    -620287.866343799     
  9.439999999999999E-006    -571719.277053854     
  9.459999999999999E-006    -441717.233369766     
  9.479999999999999E-006    -244100.645245642     
  9.500000000000001E-006    -3212.80591036452     
  9.520000000000000E-006     249941.022939296     
  9.540000000000000E-006     482436.325893252     
  9.560000000000000E-006     663676.404944294     
  9.580000000000000E-006     768555.886434665     
  9.600000000000000E-006     779963.611195433     
  9.619999999999999E-006     691173.382895248     
  9.639999999999999E-006     507904.315002856     
  9.660000000000001E-006     249086.368954149     
  9.680000000000000E-006    -54716.5896338603     
  9.700000000000000E-006    -365412.387117421     
  9.720000000000000E-006    -643000.678019931     
  9.740000000000000E-006    -851143.516920650     
  9.760000000000000E-006    -961569.627989389     
  9.780000000000000E-006    -957120.752350766     
  9.799999999999999E-006    -833809.702906266     
  9.819999999999999E-006    -601979.768949370     
  9.840000000000001E-006    -286029.625042799     
  9.860000000000000E-006     77918.5315265539     
  9.880000000000000E-006     446428.463830719     
  9.900000000000000E-006     774433.317231615     
  9.920000000000000E-006     1020938.08683856     
  9.940000000000000E-006     1153765.18673913     
  9.960000000000000E-006     1153133.39185004     
  9.979999999999999E-006     1014248.06612713     
  9.999999999999999E-006     748752.616336271     
  1.002000000000000E-005     384379.521207553     
  1.004000000000000E-005    -37850.2737994630     
  1.006000000000000E-005    -468796.687054041     
  1.008000000000000E-005    -857671.405927059     
  1.010000000000000E-005    -1158328.49396135     
  1.012000000000000E-005    -1334300.93371358     
  1.014000000000000E-005    -1362315.88178867     
  1.016000000000000E-005    -1234691.05482322     
  1.018000000000000E-005    -960886.889070527     
  1.020000000000000E-005    -567690.528221066     
  1.022000000000000E-005    -97173.7162223320     
  1.024000000000000E-005     397903.100492407     
  1.026000000000000E-005     860718.101605071     
  1.028000000000000E-005     1237703.99446628     
  1.030000000000000E-005     1484992.03157400     
  1.032000000000000E-005     1572993.35312045     
  1.034000000000000E-005     1488957.93048050     
  1.036000000000000E-005     1238027.86953418     
  1.038000000000000E-005     843260.204339985     
  1.040000000000000E-005     344306.221360076     
  1.042000000000000E-005    -205910.832871595     
  1.044000000000000E-005    -746758.039365408     
  1.046000000000000E-005    -1217291.18254884     
  1.048000000000000E-005    -1564184.90640276     
  1.050000000000000E-005    -1748260.70439619     
  1.052000000000000E-005    -1748256.99013444     
  1.054000000000000E-005    -1561855.50202866     