 -1.200000000000000E-006    0.000000000000000E+000
 -1.180000000000000E-006    0.000000000000000E+000
 -1.160000000000000E-006    0.000000000000000E+000
 -1.140000000000000E-006    0.000000000000000E+000
 -1.120000000000000E-006    0.000000000000000E+000
 -1.100000000000000E-006    0.000000000000000E+000
 -1.080000000000000E-006    0.000000000000000E+000
 -1.060000000000000E-006   -4.874310769779153E-027
 -1.040000000000000E-006   -7.080814914395208E-013
 -1.020000000000000E-006    2.441644538280297E-011
 -1.000000000000000E-006   -3.813448485306062E-010
 -9.799999999999999E-007    3.564908186311965E-009
 -9.599999999999999E-007   -2.197980306518090E-008
 -9.399999999999999E-007    9.154892949488342E-008
 -9.199999999999999E-007   -2.452399233674750E-007
 -9.000000000000000E-007    3.160262389198482E-007
 -8.799999999999999E-007    3.763242019516968E-007
 -8.599999999999999E-007   -2.493572664217389E-006
 -8.400000000000000E-007    4.161726101338632E-006
 -8.200000000000000E-007    2.159809700219315E-007
 -8.000000000000000E-007   -1.215857830431300E-005
 -7.799999999999999E-007    1.968550731130559E-005
 -7.599999999999999E-007   -1.073846375216361E-005
 -7.399999999999999E-007   -1.630651281346407E-005
 -7.199999999999999E-007    9.011426884012543E-005
 -7.000000000000000E-007   -1.806094729873641E-004
 -6.799999999999999E-007   -4.923552725601526E-005
 -6.599999999999999E-007    7.211098124682389E-004
 -6.399999999999999E-007   -5.393910276307297E-004
 -6.199999999999999E-007   -1.365235177556590E-003
 -6.000000000000000E-007    1.610184654051070E-003
 -5.800000000000000E-007    1.744839082266755E-003
 -5.599999999999999E-007   -1.161576907991618E-003
 -5.399999999999999E-007   -2.939740936271731E-003
 -5.199999999999999E-007   -5.263010283488320E-003
 -5.000000000000000E-007    7.814553297627560E-003
 -4.800000000000000E-007    2.248337616965638E-002
 -4.599999999999999E-007   -1.393074008122102E-002
 -4.399999999999999E-007   -4.989012115368781E-002
 -4.199999999999999E-007   -3.705214097506262E-004
 -4.000000000000000E-007    6.745608138144760E-002
 -3.800000000000000E-007    6.813426509776167E-002
 -3.599999999999999E-007   -1.691025208287531E-002
 -3.399999999999999E-007   -0.152528432144006     
 -3.199999999999999E-007   -0.153613254564653     
 -2.999999999999999E-007    4.139614038142420E-002
 -2.800000000000000E-007    0.267403591321905     
 -2.599999999999999E-007    0.437793381949630     
 -2.399999999999998E-007    0.220210842515561     
 -2.200000000000000E-007   -0.656624085815385     
 -2.000000000000000E-007    -1.31528435810753     
 -1.800000000000000E-007   -0.714378710211552     
 -1.600000000000000E-007    0.929087587801648     
 -1.399999999999999E-007     2.53635047745942     
 -1.199999999999999E-007     2.54986750824685     
 -9.999999999999989E-008    0.263616055399533     
 -7.999999999999987E-008    -2.96913632791746     
 -5.999999999999985E-008    -5.64372460389890     
 -3.999999999999983E-008    -6.25711894403570     
 -2.000000000000002E-008    -2.30902666198694     
  0.000000000000000E+000     6.30821528927012     
  2.000000000000002E-008     15.9623922203222     
  4.000000000000004E-008     20.6974001085844     
  6.000000000000006E-008     12.1710136565752     
  8.000000000000008E-008    -13.2452411939552     
  1.000000000000001E-007    -45.3910409520575     
  1.200000000000001E-007    -62.5414927945195     
  1.400000000000001E-007    -40.6652035360313     
  1.600000000000002E-007     26.4064785403171     
  1.800000000000002E-007     105.212751989778     
  2.000000000000000E-007     136.247108242874     
  2.200000000000000E-007     75.5851048526449     
  2.400000000000000E-007    -71.8189614628589     
  2.600000000000001E-007    -243.430893816140     
  2.800000000000001E-007    -356.033360322377     
  3.000000000000001E-007    -363.311351385280     
  3.200000000000001E-007    -265.736038009782     
  3.400000000000001E-007    -75.1560255177004     
  3.600000000000002E-007     229.736970788312     
  3.800000000000002E-007     719.718611967220     
  4.000000000000000E-007     1440.36021089195     
  4.200000000000000E-007     2310.13194036094     
  4.400000000000000E-007     3148.80231099803     
  4.600000000000000E-007     3840.68345142008     
  4.800000000000001E-007     4523.91909502001     
  5.000000000000001E-007     5669.25583148165     
  5.200000000000001E-007     7923.88218460537     
  5.400000000000001E-007     11818.0899669670     
  5.600000000000001E-007     17568.4600563097     
  5.800000000000002E-007     25103.7070519761     
  6.000000000000002E-007     34344.7491555418     
  6.200000000000000E-007     45519.5087887553     
  6.400000000000000E-007     59139.9520808662     
  6.600000000000000E-007     75712.7929292527     
  6.800000000000001E-007     95565.7213495975     
  7.000000000000001E-007     118897.430200805     
  7.200000000000003E-007     145903.843239555     
  7.400000000000001E-007     176706.245458319     
  7.599999999999999E-007     210942.305541005     
  7.800000000000002E-007     247324.753510548     
  8.000000000000000E-007     283520.778373110     
  8.200000000000002E-007     316513.629327589     
  8.400000000000000E-007     343414.756498772     
  8.600000000000002E-007     361968.732798752     
  8.800000000000000E-007     369877.467334049     
  9.000000000000003E-007     363460.836182861     
  9.200000000000001E-007     337080.963611765     
  9.399999999999999E-007     284127.073457775     
  9.600000000000001E-007     199097.901825495     
  9.799999999999999E-007     79334.5819169111     
  1.000000000000000E-006    -74677.1633455566     
  1.020000000000000E-006    -260268.502637778     
  1.040000000000000E-006    -473977.997751662     
  1.060000000000000E-006    -711973.079647406     
  1.080000000000000E-006    -968393.469404319     
  1.100000000000000E-006    -1232946.91135899     
  1.120000000000000E-006    -1490431.42366661     
  1.140000000000000E-006    -1722863.73934533     
  1.160000000000000E-006    -1912513.64872828     
  1.180000000000000E-006    -2043725.45489014     
  1.200000000000000E-006    -2102952.47312505     
  1.220000000000000E-006    -2078338.65090590     
  1.240000000000000E-006    -1959945.92059650     
  1.260000000000000E-006    -1741008.37567438     
  1.280000000000000E-006    -1420486.24666968     
  1.300000000000000E-006    -1005415.41403595     
  1.320000000000000E-006    -510453.511285570     
  1.340000000000000E-006     45045.3811345058     
  1.360000000000000E-006     639557.056971076     
  1.380000000000000E-006     1249898.47054356     
  1.400000000000000E-006     1850833.09408132     
  1.420000000000000E-006     2415986.45104061     
  1.440000000000000E-006     2920161.91167016     
  1.460000000000000E-006     3341127.41190929     
  1.480000000000000E-006     3660591.32625463     
  1.500000000000000E-006     3864817.05412320     
  1.520000000000000E-006     3943948.88824837     
  1.540000000000000E-006     3890559.13906624     
  1.560000000000000E-006     3699723.85609043     
  1.580000000000000E-006     3370793.05379690     
  1.600000000000000E-006     2908608.21170515     
  1.620000000000000E-006     2322421.17218489     
  1.640000000000000E-006     1624014.41804090     
  1.660000000000000E-006     828376.614801960     
  1.680000000000000E-006    -43284.4667757275     
  1.700000000000000E-006    -961523.916130130     
  1.720000000000000E-006    -1888291.58998150     
  1.740000000000000E-006    -2777569.65478036     
  1.760000000000000E-006    -3578048.39561052     
  1.780000000000000E-006    -4237637.70344174     
  1.800000000000000E-006    -4707711.56625933     
  1.820000000000000E-006    -4945790.92952417     
  1.840000000000000E-006    -4918020.57916899     
  1.860000000000000E-006    -4604164.03511605     
  1.880000000000000E-006    -4004310.31290399     
  1.900000000000000E-006    -3142820.78326401     
  1.920000000000000E-006    -2068403.17541400     
  1.940000000000000E-006    -852194.609239895     
  1.960000000000000E-006     416720.199084720     
  1.980000000000000E-006     1639071.15670526     
  2.000000000000000E-006     2714516.91577507     
  2.020000000000000E-006     3550152.24539604     
  2.040000000000000E-006     4068292.13115228     
  2.060000000000000E-006     4214883.92765422     
  2.080000000000000E-006     3967994.74080431     
  2.100000000000000E-006     3342562.34471636     
  2.120000000000000E-006     2390055.00907285     
  2.140000000000000E-006     1195110.02523047     
  2.160000000000000E-006    -131025.086849888     
  2.180000000000000E-006    -1461097.65006825     
  2.200000000000000E-006    -2664404.31604364     
  2.220000000000000E-006    -3619049.94374661     
  2.240000000000000E-006    -4223381.36824497     
  2.260000000000000E-006    -4406610.66456273     
  2.280000000000000E-006    -4137591.07238190     
  2.300000000000000E-006    -3429116.66162995     
  2.320000000000000E-006    -2336893.73239148     
  2.340000000000000E-006    -955018.974678059     
  2.360000000000000E-006     591879.641539613     
  2.380000000000000E-006     2160419.15356534     
  2.400000000000000E-006     3602111.59060095     
  2.420000000000000E-006     4776912.83971734     
  2.440000000000000E-006     5566477.66765902     
  2.460000000000000E-006     5886210.73560673     
  2.480000000000000E-006     5694045.78679415     
  2.500000000000000E-006     4994397.06659977     
  2.520000000000000E-006     3837566.14004154     
  2.540000000000000E-006     2315889.87699530     
  2.560000000000000E-006     556293.510893341     
  2.580000000000000E-006    -1291506.89977798     
  2.600000000000000E-006    -3069220.32001015     
  2.620000000000000E-006    -4623812.22331297     
  2.640000000000001E-006    -5820056.65753787     
  2.660000000000000E-006    -6551831.97647455     
  2.680000000000000E-006    -6751472.70044738     
  2.700000000000000E-006    -6396251.78353071     
  2.720000000000000E-006    -5511089.23890669     
  2.740000000000000E-006    -4166542.83181159     
  2.760000000000000E-006    -2471928.88666495     
  2.780000000000000E-006    -564866.891232555     
  2.800000000000000E-006     1401151.56655777     
  2.820000000000001E-006     3269302.64658427     
  2.840000000000000E-006     4890581.29492265     
  2.860000000000000E-006     6134335.89780617     
  2.880000000000000E-006     6899313.17889636     
  2.900000000000000E-006     7123796.15872677     
  2.920000000000000E-006     6791717.38279933     
  2.940000000000000E-006     5932220.18544387     
  2.960000000000000E-006     4614151.55048037     
  2.980000000000000E-006     2939865.22476430     
  3.000000000000000E-006     1038490.56766060     
  3.020000000000000E-006    -943723.338517542     
  3.040000000000000E-006    -2854585.50781748     
  3.060000000000000E-006    -4547587.91056751     
  3.080000000000000E-006    -5894503.08177996     
  3.100000000000000E-006    -6796394.73431699     
  3.120000000000000E-006    -7190248.10726358     
  3.140000000000000E-006    -7051139.83555068     
  3.160000000000000E-006    -6391961.53209992     
  3.180000000000000E-006    -5263459.73416919     
  3.200000000000000E-006    -3752296.54364051     
  3.220000000000000E-006    -1973221.73276042     
  3.240000000000000E-006    -59036.9767109482     
  3.260000000000001E-006     1848848.59858215     
  3.280000000000000E-006     3611807.29578737     
  3.300000000000000E-006     5104861.66060477     
  3.320000000000000E-006     6223742.68691444     
  3.340000000000000E-006     6890775.68618621     
  3.360000000000000E-006     7061092.57342637     
  3.380000000000000E-006     6727512.54978710     
  3.400000000000000E-006     5920638.50191679     
  3.420000000000000E-006     4702748.04242345     
  3.440000000000001E-006     3162134.45623867     
  3.460000000000000E-006     1410128.46055511     
  3.480000000000000E-006    -426982.546911938     
  3.500000000000000E-006    -2219742.81295437     
  3.520000000000000E-006    -3843762.52715082     
  3.540000000000000E-006    -5187078.45173753     
  3.560000000000000E-006    -6159133.29428956     
  3.580000000000000E-006    -6697916.78824549     
  3.600000000000000E-006    -6772906.26905044     
  3.620000000000000E-006    -6383971.44313121     
  3.640000000000000E-006    -5561032.63628598     
  3.660000000000000E-006    -4365390.20850844     
  3.680000000000000E-006    -2884468.39703327     
  3.700000000000001E-006    -1221718.86894612     
  3.720000000000000E-006     509098.658397339     
  3.740000000000000E-006     2189445.95852401     
  3.760000000000000E-006     3705769.59335399     
  3.780000000000000E-006     4958002.59656352     
  3.800000000000000E-006     5865297.21014016     
  3.820000000000001E-006     6370642.14260056     
  3.840000000000001E-006     6444859.93772421     
  3.860000000000000E-006     6089526.95586715     
  3.880000000000000E-006     5334560.05001246     
  3.900000000000000E-006     4233043.34569881     
  3.920000000000000E-006     2860516.21047163     
  3.940000000000000E-006     1312232.67696167     
  3.959999999999999E-006    -306585.856883470     
  3.980000000000001E-006    -1888812.78809041     
  4.000000000000001E-006    -3330436.57590655     
  4.020000000000000E-006    -4537657.76176189     
  4.040000000000000E-006    -5434204.68529225     
  4.060000000000000E-006    -5966364.08320357     
  4.080000000000000E-006    -6104657.27825168     
  4.100000000000000E-006    -5843891.16180178     
  4.120000000000000E-006    -5205500.35054551     
  4.139999999999999E-006    -4237013.44187517     
  4.160000000000001E-006    -3005162.65630516     
  4.180000000000001E-006    -1591318.46801178     
  4.200000000000000E-006    -89289.3422483648     
  4.220000000000000E-006     1401988.01350225     
  4.240000000000000E-006     2786947.45339124     
  4.260000000000000E-006     3978484.18681543     
  4.280000000000000E-006     4902185.74719920     
  4.299999999999999E-006     5501204.57826113     
  4.320000000000001E-006     5741469.27058834     
  4.340000000000001E-006     5613590.04186199     
  4.360000000000001E-006     5129972.97415592     
  4.380000000000000E-006     4324102.92528329     
  4.400000000000000E-006     3251513.20499246     
  4.420000000000000E-006     1984580.82282525     
  4.440000000000000E-006     605194.827655976     
  4.460000000000000E-006    -798716.472738324     
  4.479999999999999E-006    -2137121.37279326     
  4.500000000000001E-006    -3324850.34308127     
  4.520000000000001E-006    -4288944.13945994     
  4.540000000000001E-006    -4973128.98007048     
  4.560000000000000E-006    -5338338.56938514     
  4.580000000000000E-006    -5364146.75276667     
  4.600000000000000E-006    -5052608.07187768     
  4.620000000000000E-006    -4428136.77426195     
  4.640000000000000E-006    -3533571.31445623     
  4.659999999999999E-006    -2427474.70998150     
  4.680000000000001E-006    -1181340.94484804     
  4.700000000000001E-006     125073.033585523     
  4.720000000000001E-006     1409318.18027477     
  4.740000000000000E-006     2592233.40441952     
  4.760000000000000E-006     3602377.11702936     
  4.780000000000000E-006     4378972.21262256     
  4.800000000000000E-006     4875995.32284804     
  4.820000000000000E-006     5065768.51030067     
  4.839999999999999E-006     4939900.49825548     
  4.860000000000001E-006     4509328.27478750     
  4.880000000000001E-006     3803824.93280095     
  4.900000000000001E-006     2870270.36245675     
  4.920000000000000E-006     1769601.84268544     
  4.940000000000000E-006     571860.419989396     
  4.960000000000000E-006    -648969.684067419     
  4.980000000000000E-006    -1818276.10429180     
  5.000000000000000E-006    -2864418.89983326     
  5.019999999999999E-006    -3723728.24494435     
  5.040000000000001E-006    -4344835.12170834     
  5.060000000000001E-006    -4692088.60192091     
  5.080000000000000E-006    -4748143.08515697     
  5.100000000000000E-006    -4514070.69495529     
  5.120000000000000E-006    -4007465.95504877     
  5.140000000000000E-006    -3260942.11483973     
  5.160000000000000E-006    -2321657.27827124     
  5.180000000000000E-006    -1249758.79005821     
  5.199999999999999E-006    -113445.133879569     
  5.220000000000001E-006     1017372.12435265     
  5.240000000000001E-006     2074904.68293991     
  5.260000000000000E-006     2996132.29603571     
  5.280000000000000E-006     3727007.94012999     
  5.300000000000000E-006     4225748.21912695     
  5.320000000000000E-006     4463642.61019507     
  5.340000000000000E-006     4426907.49539906     
  5.360000000000000E-006     4120244.84924760     
  5.380000000000001E-006     3567209.67713306     
  5.400000000000001E-006     2805554.52811114     
  5.420000000000001E-006     1882521.89128295     
  5.440000000000000E-006     853902.097947254     
  5.460000000000000E-006    -217008.320494931     
  5.480000000000000E-006    -1264501.55240994     
  5.500000000000000E-006    -2225890.80141941     
  5.520000000000000E-006    -3043950.58177889     
  5.539999999999999E-006    -3669830.82808046     
  5.560000000000001E-006    -4067815.64025056     
  5.580000000000001E-006    -4217553.34218012     
  5.600000000000001E-006    -4112849.15106656     
  5.620000000000000E-006    -3761559.06980433     
  5.640000000000000E-006    -3187332.95381059     
  5.660000000000000E-006    -2428404.76604190     
  5.680000000000000E-006    -1532462.48369536     
  5.700000000000000E-006    -552997.909535199     
  5.719999999999999E-006     451348.202640476     
  5.740000000000001E-006     1419440.58268843     
  5.760000000000001E-006     2293337.60400286     
  5.780000000000001E-006     3022303.36762841     
  5.800000000000000E-006     3564187.63100695     
  5.820000000000000E-006     3887763.46997575     
  5.840000000000000E-006     3976020.58120523     
  5.860000000000000E-006     3826713.61122726     
  5.880000000000000E-006     3450571.57415083     
  5.899999999999999E-006     2871114.73300714     
  5.920000000000001E-006     2125171.32565787     
  5.940000000000001E-006     1260046.58353834     
  5.960000000000001E-006     328607.847903179     
  5.980000000000000E-006    -613849.534382533     
  6.000000000000000E-006    -1511516.67787920     
  6.020000000000000E-006    -2311232.28357445     
  6.040000000000000E-006    -2966323.86928019     
  6.060000000000000E-006    -3439101.45992443     
  6.079999999999999E-006    -3702558.89955786     
  6.100000000000001E-006    -3742926.02202349     
  6.120000000000001E-006    -3561111.55516946     
  6.140000000000001E-006    -3170925.23883802     
  6.160000000000000E-006    -2597060.09970695     
  6.180000000000000E-006    -1874799.52613150     
  6.200000000000000E-006    -1048540.03250209     
  6.220000000000000E-006    -168118.691345873     
  6.240000000000000E-006     714594.301218607     
  6.260000000000001E-006     1547846.62633598     
  6.280000000000001E-006     2282331.93784658     
  6.300000000000001E-006     2875048.39289629     
  6.320000000000000E-006     3292897.29937065     
  6.340000000000000E-006     3513505.11803762     
  6.360000000000000E-006     3525359.96773503     
  6.380000000000000E-006     3329291.34639112     
  6.400000000000000E-006     2938807.51887367     
  6.420000000000000E-006     2378487.04557050     
  6.439999999999999E-006     1682453.41972823     
  6.459999999999999E-006     892884.957480065     
  6.480000000000001E-006     57692.0026739502     
  6.500000000000000E-006    -772920.503626462     
  6.520000000000000E-006    -1550420.10260732     
  6.540000000000000E-006    -2230366.17670439     
  6.560000000000000E-006    -2773747.20055082     
  6.580000000000000E-006    -3149522.10338013     
  6.599999999999999E-006    -3337031.89820718     
  6.619999999999999E-006    -3326887.91641106     
  6.639999999999999E-006    -3121513.40157585     
  6.660000000000001E-006    -2735017.26299710     
  6.680000000000000E-006    -2192001.64678362     
  6.700000000000000E-006    -1525901.49285459     
  6.720000000000000E-006    -776539.225667055     
  6.740000000000000E-006     12226.1185820963     
  6.760000000000000E-006     794116.173566582     
  6.779999999999999E-006     1523176.02072743     
  6.799999999999999E-006     2157175.82945823     
  6.819999999999999E-006     2659811.70610851     
  6.840000000000001E-006     3002706.08047137     
  6.860000000000000E-006     3167409.58139573     
  6.880000000000000E-006     3146192.40739360     
  6.900000000000000E-006     2941998.53141974     
  6.920000000000000E-006     2567827.96898247     
  6.940000000000000E-006     2046030.00325072     
  6.959999999999999E-006     1408091.53006075     
  6.979999999999999E-006     693079.642162622     
  6.999999999999999E-006    -55835.3946448328     
  7.020000000000001E-006    -794476.780286147     
  7.040000000000000E-006    -1480193.42208025     
  7.060000000000000E-006    -2074357.26694406     
  7.080000000000000E-006    -2543800.50521044     
  7.100000000000000E-006    -2861899.54421274     
  7.120000000000000E-006    -3010468.33329233     
  7.139999999999999E-006    -2981704.56548234     
  7.159999999999999E-006    -2779302.79827195     
  7.179999999999999E-006    -2417759.63929205     
  7.200000000000001E-006    -1919967.28493585     
  7.220000000000000E-006    -1315353.85201906     
  7.240000000000000E-006    -639050.246563331     
  7.260000000000000E-006     69576.2728852549     
  7.280000000000000E-006     769092.017935158     
  7.300000000000000E-006     1418571.96402466     
  7.319999999999999E-006     1980633.35392002     
  7.339999999999999E-006     2423776.53384905     
  7.359999999999999E-006     2723649.33260409     
  7.380000000000000E-006     2864045.49478543     
  7.400000000000000E-006     2837581.23783985     
  7.420000000000000E-006     2646194.23310851     
  7.440000000000000E-006     2301852.27442490     
  7.460000000000000E-006     1826320.20000103     
  7.480000000000000E-006     1249060.79002530     
  7.499999999999999E-006     604354.693127668     
  7.519999999999999E-006    -70784.0736373531     
  7.540000000000001E-006    -737578.880041808     
  7.560000000000000E-006    -1356896.65306401     
  7.580000000000000E-006    -1892486.38294117     
  7.600000000000000E-006    -2314189.75048259     
  7.620000000000000E-006    -2598908.70227355     
  7.640000000000000E-006    -2730995.93782317     
  7.660000000000000E-006    -2703759.85408894     
  7.679999999999999E-006    -2520295.04097764     
  7.699999999999999E-006    -2192650.46807197     
  7.720000000000001E-006    -1740867.31750861     
  7.740000000000000E-006    -1192240.03383042     
  7.760000000000000E-006    -579638.282984177     
  7.780000000000000E-006     61274.0905517039     
  7.800000000000000E-006     694323.549526429     
  7.820000000000000E-006     1283609.11415905     
  7.839999999999999E-006     1794795.23344534     
  7.859999999999999E-006     2198327.20192377     
  7.879999999999999E-006     2471912.45639744     
  7.900000000000001E-006     2600939.01736209     
  7.920000000000000E-006     2579072.20326325     
  7.940000000000000E-006     2408986.11194290     
  7.960000000000000E-006     2101610.40249192     
  7.980000000000000E-006     1675086.91726685     
  8.000000000000000E-006     1154543.45969852     
  8.019999999999999E-006     571276.980469699     
  8.039999999999999E-006    -39903.0678454931     
  8.059999999999999E-006    -643957.014642261     
  8.080000000000001E-006    -1207018.49034931     
  8.100000000000000E-006    -1696739.96404933     
  8.120000000000000E-006    -2084803.78162546     
  8.140000000000000E-006    -2350015.60147029     
  8.160000000000000E-006    -2478602.28389888     
  8.180000000000000E-006    -2463886.85385068     
  8.199999999999999E-006    -2307603.27702227     
  8.219999999999999E-006    -2020319.29317924     
  8.239999999999999E-006    -1619706.92272811     
  8.260000000000001E-006    -1128913.84227824     
  8.280000000000000E-006    -576292.969319446     
  8.300000000000000E-006     5414.27023534680     
  8.320000000000000E-006     582275.658474849     
  8.340000000000000E-006     1122196.66732407     
  8.360000000000000E-006     1595121.48486199     
  8.379999999999999E-006     1973606.71378209     
  8.399999999999999E-006     2236025.88628826     
  8.419999999999999E-006     2368606.48105179     
  8.440000000000001E-006     2364757.47030569     
  8.460000000000000E-006     2224925.51716082     
  8.480000000000000E-006     1957727.73360120     
  8.500000000000000E-006     1579816.43456139     
  8.520000000000000E-006     1113764.84072226     
  8.540000000000000E-006     586320.631413911     
  8.559999999999999E-006     28223.0491018505     
  8.579999999999999E-006    -527161.644114415     
  8.600000000000001E-006    -1047560.48841550     
  8.620000000000000E-006    -1504225.98497373     
  8.640000000000000E-006    -1871901.84548910     
  8.660000000000000E-006    -2129682.32362926     
  8.680000000000000E-006    -2263314.94109590     
  8.700000000000000E-006    -2266291.64940612     
  8.720000000000000E-006    -2139457.90898301     
  8.739999999999999E-006    -1890827.15112077     
  8.759999999999999E-006    -1535749.94480616     
  8.780000000000001E-006    -1095943.91011576     
  8.800000000000000E-006    -597212.802002537     
  8.820000000000000E-006    -67823.6144089591     
  8.840000000000000E-006     462082.827164876     
  8.860000000000000E-006     962036.776330555     
  8.880000000000000E-006     1403710.21419084     
  8.899999999999999E-006     1762435.36946484     
  8.919999999999999E-006     2018117.59913480     
  8.939999999999999E-006     2156737.57891360     
  8.960000000000001E-006     2171563.32909580     
  8.980000000000000E-006     2062968.55207997     
  9.000000000000000E-006     1837613.54107212     
  9.020000000000000E-006     1508295.52763409     
  9.040000000000000E-006     1094262.50003461     
  9.060000000000000E-006     620379.184474132     
  9.079999999999999E-006     114752.071418689     
  9.099999999999999E-006    -393564.003071049     
  9.119999999999999E-006    -875968.655426622     
  9.140000000000001E-006    -1305584.27953476     
  9.160000000000000E-006    -1658575.28275088     
  9.180000000000000E-006    -1915220.78124522     
  9.200000000000000E-006    -2060995.79910857     
  9.220000000000000E-006    -2087800.87703869     
  9.240000000000000E-006    -1994993.09267416     
  9.259999999999999E-006    -1789465.36489210     
  9.279999999999999E-006    -1484296.73359031     
  9.299999999999999E-006    -1097080.71901884     
  9.320000000000001E-006    -649347.743218490     
  9.340000000000000E-006    -166464.795450268     
  9.360000000000000E-006     323467.987175753     
  9.380000000000000E-006     791892.480144890     
  9.400000000000000E-006     1212170.11191456     
  9.420000000000000E-006     1561037.46360219     
  9.439999999999999E-006     1819340.55234985     
  9.459999999999999E-006     1972847.02242346     
  9.479999999999999E-006     2013066.87709182     
  9.500000000000001E-006     1937832.60521753     
  9.520000000000000E-006     1751811.98344381     
  9.540000000000000E-006     1466549.97662276     
  9.560000000000000E-006     1099474.07452025     
  9.580000000000000E-006     672230.694040262     
  9.600000000000000E-006     209308.551243950     
  9.619999999999999E-006    -262823.321326279     
  9.639999999999999E-006    -716917.871574700     
  9.660000000000001E-006    -1126927.77445142     
  9.680000000000000E-006    -1469858.81568436     
  9.700000000000000E-006    -1726861.77991930     
  9.720000000000000E-006    -1883956.73976054     
  9.740000000000000E-006    -1932769.04055754     
  9.760000000000000E-006    -1871197.03783435     
  9.780000000000000E-006    -1703614.03237379     
  9.799999999999999E-006    -1440494.82202438     
  9.819999999999999E-006    -1097769.13252279     
  9.840000000000001E-006    -695651.323837943     
  9.860000000000000E-006    -256995.765137556     
  9.880000000000000E-006     193815.884517946     
  9.900000000000000E-006     631485.637397915     
  9.920000000000000E-006     1030968.40013757     
  9.940000000000000E-006     1369371.28459451     
  9.960000000000000E-006     1627917.17355875     
  9.979999999999999E-006     1792958.28115237     
  9.999999999999999E-006     1855905.59870873     
  1.002000000000000E-005     1813465.31091898     
  1.004000000000000E-005     1668307.36040936     
  1.006000000000000E-005     1429003.76145469     
  1.008000000000000E-005     1109570.61792032     
  1.010000000000000E-005     728892.198813987     
  1.012000000000000E-005     309313.506793071     
  1.014000000000000E-005    -125145.904571355     
  1.016000000000000E-005    -550181.902572546     
  1.018000000000000E-005    -942094.474647503     
  1.020000000000000E-005    -1278548.20859439     
  1.022000000000000E-005    -1540276.20008138     
  1.024000000000000E-005    -1713041.99779330     
  1.026000000000000E-005    -1787919.74120322     
  1.028000000000000E-005    -1761030.57151796     
  1.030000000000000E-005    -1634273.30840674     
  1.032000000000000E-005    -1415555.31904066     
  1.034000000000000E-005    -1117884.76832169     
  1.036000000000000E-005    -758427.160720036     
  1.038000000000000E-005    -357786.972276773     
  1.040000000000000E-005     60895.9323140127     
  1.042000000000000E-005     473669.048308066     
  1.044000000000000E-005     857676.459772332     
  1.046000000000000E-005     1191596.98898093     
  1.048000000000000E-005     1456050.82671224     
  1.050000000000000E-005     1635846.56247179     
  1.052000000000000E-005     1721676.03986238     
  1.054000000000000E-005     1709679.72865010     