 -1.200000000000000E-006    0.000000000000000E+000
 -1.180000000000000E-006    0.000000000000000E+000
 -1.160000000000000E-006    0.000000000000000E+000
 -1.140000000000000E-006    0.000000000000000E+000
 -1.120000000000000E-006    0.000000000000000E+000
 -1.100000000000000E-006    0.000000000000000E+000
 -1.080000000000000E-006    0.000000000000000E+000
 -1.060000000000000E-006    0.000000000000000E+000
 -1.040000000000000E-006    0.000000000000000E+000
 -1.020000000000000E-006    0.000000000000000E+000
 -1.000000000000000E-006    0.000000000000000E+000
 -9.799999999999999E-007    0.000000000000000E+000
 -9.599999999999999E-007    0.000000000000000E+000
 -9.399999999999999E-007    0.000000000000000E+000
 -9.199999999999999E-007    0.000000000000000E+000
 -9.000000000000000E-007    0.000000000000000E+000
 -8.799999999999999E-007    0.000000000000000E+000
 -8.599999999999999E-007    0.000000000000000E+000
 -8.400000000000000E-007    0.000000000000000E+000
 -8.200000000000000E-007    0.000000000000000E+000
 -8.000000000000000E-007    0.000000000000000E+000
 -7.799999999999999E-007    0.000000000000000E+000
 -7.599999999999999E-007    0.000000000000000E+000
 -7.399999999999999E-007    0.000000000000000E+000
 -7.199999999999999E-007    0.000000000000000E+000
 -7.000000000000000E-007    0.000000000000000E+000
 -6.799999999999999E-007    0.000000000000000E+000
 -6.599999999999999E-007    0.000000000000000E+000
 -6.399999999999999E-007    0.000000000000000E+000
 -6.199999999999999E-007    0.000000000000000E+000
 -6.000000000000000E-007    0.000000000000000E+000
 -5.800000000000000E-007    0.000000000000000E+000
 -5.599999999999999E-007    0.000000000000000E+000
 -5.399999999999999E-007    0.000000000000000E+000
 -5.199999999999999E-007    0.000000000000000E+000
 -5.000000000000000E-007    0.000000000000000E+000
 -4.800000000000000E-007    0.000000000000000E+000
 -4.599999999999999E-007    0.000000000000000E+000
 -4.399999999999999E-007    0.000000000000000E+000
 -4.199999999999999E-007    0.000000000000000E+000
 -4.000000000000000E-007    0.000000000000000E+000
 -3.800000000000000E-007    0.000000000000000E+000
 -3.599999999999999E-007    0.000000000000000E+000
 -3.399999999999999E-007    0.000000000000000E+000
 -3.199999999999999E-007    0.000000000000000E+000
 -2.999999999999999E-007    0.000000000000000E+000
 -2.800000000000000E-007    0.000000000000000E+000
 -2.599999999999999E-007    0.000000000000000E+000
 -2.399999999999998E-007    0.000000000000000E+000
 -2.200000000000000E-007    0.000000000000000E+000
 -2.000000000000000E-007    0.000000000000000E+000
 -1.800000000000000E-007    0.000000000000000E+000
 -1.600000000000000E-007    0.000000000000000E+000
 -1.399999999999999E-007    0.000000000000000E+000
 -1.199999999999999E-007    0.000000000000000E+000
 -9.999999999999989E-008    0.000000000000000E+000
 -7.999999999999987E-008    0.000000000000000E+000
 -5.999999999999985E-008    0.000000000000000E+000
 -3.999999999999983E-008    0.000000000000000E+000
 -2.000000000000002E-008    0.000000000000000E+000
  0.000000000000000E+000    0.000000000000000E+000
  2.000000000000002E-008    0.000000000000000E+000
  4.000000000000004E-008    0.000000000000000E+000
  6.000000000000006E-008    0.000000000000000E+000
  8.000000000000008E-008    0.000000000000000E+000
  1.000000000000001E-007    0.000000000000000E+000
  1.200000000000001E-007    0.000000000000000E+000
  1.400000000000001E-007   -3.498378246501878E-038
  1.600000000000002E-007   -6.996756493003756E-038
  1.800000000000002E-007   -2.644602444861502E-039
  2.000000000000000E-007    1.640251824920434E-037
  2.200000000000000E-007    6.150210424551765E-037
  2.400000000000000E-007   -1.480101185460652E-036
  2.600000000000001E-007    2.725547559277564E-036
  2.800000000000001E-007   -1.801483207291414E-036
  3.000000000000001E-007   -9.177016314996960E-036
  3.200000000000001E-007    3.447805274157908E-035
  3.400000000000001E-007   -5.194235259535024E-035
  3.600000000000002E-007    3.401242217676041E-036
  3.800000000000002E-007    1.894919505183775E-034
  4.000000000000000E-007   -4.791023396594595E-034
  4.200000000000000E-007    4.878973242557632E-034
  4.400000000000000E-007    5.274194183205308E-034
  4.600000000000000E-007   -2.962281685294228E-033
  4.800000000000001E-007    5.065809967026000E-033
  5.000000000000001E-007   -1.551448604225464E-033
  5.200000000000001E-007   -1.335891688037795E-032
  5.400000000000001E-007    3.466049027134445E-032
  5.600000000000001E-007   -3.251258171317028E-032
  5.800000000000002E-007   -4.033372528200593E-032
  6.000000000000002E-007    1.870103782791706E-031
  6.200000000000000E-007   -2.650587704814939E-031
  6.400000000000000E-007   -2.228927172314173E-032
  6.600000000000000E-007    8.368799919369896E-031
  6.800000000000001E-007   -1.615638410936523E-030
  7.000000000000001E-007    7.541448705732389E-031
  7.200000000000003E-007    3.225405327423978E-030
  7.400000000000001E-007   -8.343919623265284E-030
  7.599999999999999E-007    6.574354562380855E-030
  7.800000000000002E-007    1.072911932563312E-029
  8.000000000000000E-007   -3.704750274515940E-029
  8.200000000000002E-007    3.916436245861514E-029
  8.400000000000000E-007    2.604637494923348E-029
  8.600000000000002E-007   -1.523952016384369E-028
  8.800000000000000E-007    2.048309902517145E-028
  9.000000000000003E-007    4.823726543177559E-029
  9.200000000000001E-007   -6.090982182326071E-028
  9.399999999999999E-007    8.718528346407142E-028
  9.600000000000001E-007    4.203491790975181E-029
  9.799999999999999E-007   -2.107989232140026E-027
  1.000000000000000E-006    3.434880080452327E-027
  1.020000000000000E-006   -6.877685507902527E-028
  1.040000000000000E-006   -7.346185963674384E-027
  1.060000000000000E-006    1.340054204772861E-026
  1.080000000000000E-006   -3.338893287432905E-027
  1.100000000000000E-006   -2.526572544578328E-026
  1.120000000000000E-006    4.606019909522351E-026
  1.140000000000000E-006   -1.436401107171306E-026
  1.160000000000000E-006   -8.373966946338349E-026
  1.180000000000000E-006    1.551838118895818E-025
  1.200000000000000E-006   -3.551161813829531E-026
  1.220000000000000E-006   -2.611312921356808E-025
  1.240000000000000E-006    4.426218162575102E-025
  1.260000000000000E-006   -1.747892202156377E-025
  1.280000000000000E-006   -7.415822534943815E-025
  1.300000000000000E-006    1.621893889396105E-024
  1.320000000000000E-006   -3.644496314469790E-025
  1.340000000000000E-006   -2.955831419181348E-024
  1.360000000000000E-006    3.720369514051606E-024
  1.380000000000000E-006   -4.102952256102526E-026
  1.400000000000000E-006   -5.768408882749726E-024
  1.420000000000000E-006    1.182234219152458E-023
  1.440000000000000E-006   -3.312255798595976E-024
  1.460000000000000E-006   -2.588578913244646E-023
  1.480000000000000E-006    2.750548080124598E-023
  1.500000000000000E-006    1.193551978654589E-023
  1.520000000000000E-006   -3.575285058715130E-023
  1.540000000000000E-006    7.359284054270322E-023
  1.560000000000000E-006   -4.311043332926002E-023
  1.580000000000000E-006   -2.261551982710213E-022
  1.600000000000000E-006    2.118813732994022E-022
  1.620000000000000E-006    2.963330425100273E-022
  1.640000000000000E-006   -1.795709698549846E-022
  1.660000000000000E-006    4.338505919408304E-023
  1.680000000000000E-006   -6.319264805968214E-022
  1.700000000000000E-006   -1.091572366222803E-021
  1.720000000000000E-006    2.187162806152881E-021
  1.740000000000000E-006    2.478779560967369E-021
  1.760000000000000E-006   -2.212116301380010E-021
  1.780000000000000E-006   -2.191209269264248E-021
  1.800000000000000E-006   -3.240571407607221E-021
  1.820000000000000E-006   -3.290667464882866E-021
  1.840000000000000E-006    1.264951155698197E-020
  1.860000000000000E-006    1.383763029227837E-020
  1.880000000000000E-006   -9.461743230877759E-021
  1.900000000000000E-006   -1.389621410503664E-020
  1.920000000000000E-006   -2.585362950415709E-020
  1.940000000000000E-006   -2.807779046265249E-020
  1.960000000000000E-006    6.164435735664340E-020
  1.980000000000000E-006    1.050165576054258E-019
  2.000000000000000E-006    1.528765853000921E-020
  2.020000000000000E-006   -6.982982631532591E-020
  2.040000000000000E-006   -2.314666014490669E-019
  2.060000000000000E-006   -2.893031539914316E-019
  2.080000000000000E-006    1.930515303486010E-019
  2.100000000000000E-006    6.873817985784935E-019
  2.120000000000000E-006    6.588143578153442E-019
  2.140000000000000E-006    1.499309148926495E-019
  2.160000000000000E-006   -1.418385912529024E-018
  2.180000000000000E-006   -2.787463640954525E-018
  2.200000000000000E-006   -1.102583096526317E-018
  2.220000000000000E-006    2.862959614398738E-018
  2.240000000000000E-006    6.696007395854936E-018
  2.260000000000000E-006    7.016009625542180E-018
  2.280000000000000E-006   -2.479811282080496E-018
  2.300000000000000E-006   -1.802083029639977E-017
  2.320000000000000E-006   -2.362091890496915E-017
  2.340000000000000E-006   -7.888787781899250E-018
  2.360000000000000E-006    3.241577526686934E-017
  2.380000000000000E-006    7.462910147982264E-017
  2.400000000000000E-006    6.036296182772144E-017
  2.420000000000000E-006   -4.023996193516749E-017
  2.440000000000000E-006   -1.791470046293452E-016
  2.460000000000000E-006   -2.379686135262716E-016
  2.480000000000000E-006   -6.459151818013830E-017
  2.500000000000000E-006    3.490947560063678E-016
  2.520000000000000E-006    7.082966301969401E-016
  2.540000000000000E-006    5.679539027908735E-016
  2.560000000000000E-006   -3.372078286369543E-016
  2.580000000000000E-006   -1.665286965296886E-015
  2.600000000000000E-006   -2.237593796966532E-015
  2.620000000000000E-006   -7.733519249495389E-016
  2.640000000000001E-006    2.751101809374123E-015
  2.660000000000000E-006    6.219486890613210E-015
  2.680000000000000E-006    5.787338466308477E-015
  2.700000000000000E-006   -1.308182284522359E-015
  2.720000000000000E-006   -1.272617917666443E-014
  2.740000000000000E-006   -1.985251505392241E-014
  2.760000000000000E-006   -1.187039070728455E-014
  2.780000000000000E-006    1.491837077151263E-014
  2.800000000000000E-006    4.732025125238758E-014
  2.820000000000001E-006    5.640895164596421E-014
  2.840000000000000E-006    1.544679655173002E-014
  2.860000000000000E-006   -7.237511436854584E-014
  2.880000000000000E-006   -1.545130952739354E-013
  2.900000000000000E-006   -1.454687616461411E-013
  2.920000000000000E-006    1.176566427140214E-014
  2.940000000000000E-006    2.721088350838290E-013
  2.960000000000000E-006    4.603528467058449E-013
  2.980000000000000E-006    3.469824198224812E-013
  3.000000000000000E-006   -1.696407675651086E-013
  3.020000000000000E-006   -8.853789660347823E-013
  3.040000000000000E-006   -1.279862809400435E-012
  3.060000000000000E-006   -7.826483742027445E-013
  3.080000000000000E-006    7.381351413760536E-013
  3.100000000000000E-006    2.583778635324364E-012
  3.120000000000000E-006    3.346822442789859E-012
  3.140000000000000E-006    1.715818648247263E-012
  3.160000000000000E-006   -2.326438784576845E-012
  3.180000000000000E-006   -6.747957515865501E-012
  3.200000000000000E-006   -8.113683247576422E-012
  3.220000000000000E-006   -3.764690246890286E-012
  3.240000000000000E-006    5.586105657311898E-012
  3.260000000000001E-006    1.488066020173867E-011
  3.280000000000000E-006    1.711992995893747E-011
  3.300000000000000E-006    8.474504396697192E-012
  3.320000000000000E-006   -7.557972993104274E-012
  3.340000000000000E-006   -2.125969938773102E-011
  3.360000000000000E-006   -2.438801668649420E-011
  3.380000000000000E-006   -1.918023641831196E-011
  3.400000000000000E-006   -1.807435161308194E-011
  3.420000000000000E-006   -2.795413649230551E-011
  3.440000000000001E-006   -2.768567523071238E-011
  3.460000000000000E-006    3.536968543450639E-011
  3.480000000000000E-006    2.020704337989717E-010
  3.500000000000000E-006    4.158646977542120E-010
  3.520000000000000E-006    4.591498038175684E-010
  3.540000000000000E-006    1.794821154356505E-011
  3.560000000000000E-006   -1.054760988535862E-009
  3.580000000000000E-006   -2.359755508612605E-009
  3.600000000000000E-006   -2.758630652757166E-009
  3.620000000000000E-006   -7.752183946597940E-010
  3.640000000000000E-006    4.220023766565569E-009
  3.660000000000000E-006    1.047289362312054E-008
  3.680000000000000E-006    1.316094169562370E-008
  3.700000000000001E-006    6.061014370351172E-009
  3.720000000000000E-006   -1.383452253471918E-008
  3.740000000000000E-006   -4.042005126207229E-008
  3.760000000000000E-006   -5.565284427005566E-008
  3.780000000000000E-006   -3.514469672898571E-008
  3.800000000000000E-006    3.554881678980810E-008
  3.820000000000001E-006    1.393129655119220E-007
  3.840000000000001E-006    2.150797805150913E-007
  3.860000000000000E-006    1.731489743342417E-007
  3.880000000000000E-006   -5.214923616017610E-008
  3.900000000000000E-006   -4.269036312054520E-007
  3.920000000000000E-006   -7.642746454383821E-007
  3.940000000000000E-006   -7.552156344896208E-007
  3.959999999999999E-006   -1.237505630084257E-007
  3.980000000000001E-006    1.123165520906670E-006
  4.000000000000001E-006    2.479947587084582E-006
  4.020000000000000E-006    2.958434523246684E-006
  4.040000000000000E-006    1.496346433752863E-006
  4.060000000000000E-006   -2.270699961695894E-006
  4.080000000000000E-006   -7.205081131157950E-006
  4.100000000000000E-006   -1.042423250511977E-005
  4.120000000000000E-006   -8.206243257585137E-006
  4.139999999999999E-006    1.822631125475505E-006
  4.160000000000001E-006    1.795067494626553E-005
  4.180000000000001E-006    3.273718971405100E-005
  4.200000000000000E-006    3.442134083674479E-005
  4.220000000000000E-006    1.244037346727544E-005
  4.240000000000000E-006   -3.414900402362032E-005
  4.260000000000000E-006   -8.942879453580911E-005
  4.280000000000000E-006   -1.204670292100404E-004
  4.299999999999999E-006   -8.899678453982017E-005
  4.320000000000001E-006    2.555853502840797E-005
  4.340000000000001E-006    2.003575984500691E-004
  4.360000000000001E-006    3.566081787903145E-004
  4.380000000000000E-006    3.769703686987804E-004
  4.400000000000000E-006    1.596866036630297E-004
  4.420000000000000E-006   -3.042263931052721E-004
  4.440000000000000E-006   -8.677573146000470E-004
  4.460000000000000E-006   -1.228305012538645E-003
  4.479999999999999E-006   -1.028780947820599E-003
  4.500000000000001E-006   -5.288993066537720E-005
  4.520000000000001E-006    1.555616036896377E-003
  4.540000000000001E-006    3.174050624614161E-003
  4.560000000000000E-006    3.811971742669545E-003
  4.580000000000000E-006    2.509793961453051E-003
  4.600000000000000E-006   -1.063240779534603E-003
  4.620000000000000E-006   -6.066545080970894E-003
  4.640000000000000E-006   -1.035355840412549E-002
  4.659999999999999E-006   -1.103369936432609E-002
  4.680000000000001E-006   -5.754826903101900E-003
  4.700000000000001E-006    5.675688494570720E-003
  4.720000000000001E-006    2.008974840147184E-002
  4.740000000000000E-006    3.105266135942075E-002
  4.760000000000000E-006    3.080716962321171E-002
  4.780000000000000E-006    1.384863618530784E-002
  4.800000000000000E-006   -1.907175438301310E-002
  4.820000000000000E-006   -5.846445614705868E-002
  4.839999999999999E-006   -8.709482159851149E-002
  4.860000000000001E-006   -8.538390888686931E-002
  4.880000000000001E-006   -4.024346936130414E-002
  4.900000000000001E-006    4.574098521993678E-002
  4.920000000000000E-006    0.149172658115208     
  4.940000000000000E-006    0.228716548487381     
  4.960000000000000E-006    0.237433691370215     
  4.980000000000000E-006    0.142030169679167     
  5.000000000000000E-006   -5.748425960924783E-002
  5.019999999999999E-006   -0.316270208091935     
  5.040000000000001E-006   -0.548490210886221     
  5.060000000000001E-006   -0.648925290738005     
  5.080000000000000E-006   -0.528041250243703     
  5.100000000000000E-006   -0.150105559198693     
  5.120000000000000E-006    0.438714242033235     
  5.140000000000000E-006     1.10326873702693     
  5.160000000000000E-006     1.63835796080085     
  5.180000000000000E-006     1.81147734650636     
  5.199999999999999E-006     1.42180264213221     
  5.220000000000001E-006    0.365827333693073     
  5.240000000000001E-006    -1.29970966936746     
  5.260000000000000E-006    -3.30804052162723     
  5.280000000000000E-006    -5.16134151172167     
  5.300000000000000E-006    -6.16250160686828     
  5.320000000000000E-006    -5.52885057739018     
  5.340000000000000E-006    -2.60812751211620     
  5.360000000000000E-006     2.81497578152133     
  5.380000000000001E-006     10.1872068782982     
  5.400000000000001E-006     17.9549183094284     
  5.420000000000001E-006     23.5908418504117     
  5.440000000000000E-006     24.0107549745224     
  5.460000000000000E-006     16.4049236136759     
  5.480000000000000E-006   -0.663679039012203     
  5.500000000000000E-006    -26.2256949654627     
  5.520000000000000E-006    -56.3743679540594     
  5.539999999999999E-006    -84.6246126935249     
  5.560000000000001E-006    -103.303916416631     
  5.580000000000001E-006    -105.715197920046     
  5.600000000000001E-006    -88.3946228983345     
  5.620000000000000E-006    -52.5330696284583     
  5.640000000000000E-006    -3.69112005603694     
  5.660000000000000E-006     50.6079794099300     
  5.680000000000000E-006     105.094917109192     
  5.700000000000000E-006     161.719691398249     
  5.719999999999999E-006     233.859239967559     
  5.740000000000001E-006     348.404082394710     
  5.760000000000001E-006     545.148609030637     
  5.780000000000001E-006     874.121821692952     
  5.800000000000000E-006     1392.64532556006     
  5.820000000000000E-006     2164.52902839236     
  5.840000000000000E-006     3263.32447736088     
  5.860000000000000E-006     4780.10337248419     
  5.880000000000000E-006     6834.15128714170     
  5.899999999999999E-006     9583.02625984888     
  5.920000000000001E-006     13227.3974130335     
  5.940000000000001E-006     18006.6121898596     
  5.960000000000001E-006     24183.2766085987     
  5.980000000000000E-006     32017.3871309177     
  6.000000000000000E-006     41733.2756824499     
  6.020000000000000E-006     53483.8144667918     
  6.040000000000000E-006     67314.5744386223     
  6.060000000000000E-006     83128.9775676476     
  6.079999999999999E-006     100653.172395809     
  6.100000000000001E-006     119397.329099997     
  6.120000000000001E-006     138611.854016908     
  6.140000000000001E-006     157242.656070515     
  6.160000000000000E-006     173891.822468209     
  6.180000000000000E-006     186798.578770732     
  6.200000000000000E-006     193855.235074148     
  6.220000000000000E-006     192671.144710241     
  6.240000000000000E-006     180694.394720368     
  6.260000000000001E-006     155389.175557875     
  6.280000000000001E-006     114461.343109383     
  6.300000000000001E-006     56119.4154832914     
  6.320000000000000E-006    -20648.6456785304     
  6.340000000000000E-006    -115804.052526546     
  6.360000000000000E-006    -228011.418966170     
  6.380000000000000E-006    -354445.450095866     
  6.400000000000000E-006    -490679.739934331     
  6.420000000000000E-006    -630684.555325593     
  6.439999999999999E-006    -766961.752434818     
  6.459999999999999E-006    -890831.822439581     
  6.480000000000001E-006    -992882.838036474     
  6.500000000000000E-006    -1063559.25012770     
  6.520000000000000E-006    -1093858.40975030     
  6.540000000000000E-006    -1076077.94561875     
  6.560000000000000E-006    -1004559.18324193     
  6.580000000000000E-006    -876350.889087200     
  6.599999999999999E-006    -691735.487033118     
  6.619999999999999E-006    -454569.704388781     
  6.639999999999999E-006    -172388.086718314     
  6.660000000000001E-006     143762.240384843     
  6.680000000000000E-006     479756.165977134     
  6.700000000000000E-006     819100.810619076     
  6.720000000000000E-006     1143890.49668130     
  6.740000000000000E-006     1435957.52407963     
  6.760000000000000E-006     1678128.61244231     
  6.779999999999999E-006     1855482.95782292     
  6.799999999999999E-006     1956501.15620370     
  6.819999999999999E-006     1973990.83623477     
  6.840000000000001E-006     1905670.06065056     
  6.860000000000000E-006     1754347.66735107     
  6.880000000000000E-006     1527710.43016416     
  6.900000000000000E-006     1237745.38824621     
  6.920000000000000E-006     899866.897450907     
  6.940000000000000E-006     531846.295388642     
  6.959999999999999E-006     152642.522928098     
  6.979999999999999E-006    -218776.433584150     
  6.999999999999999E-006    -564587.606253464     
  7.020000000000001E-006    -869175.204845688     
  7.040000000000000E-006    -1120027.38953307     
  7.060000000000000E-006    -1308399.55039076     
  7.080000000000000E-006    -1429679.75823495     
  7.100000000000000E-006    -1483403.15734877     
  7.120000000000000E-006    -1472916.05010198     
  7.139999999999999E-006    -1404761.94873397     
  7.159999999999999E-006    -1287902.26108039     
  7.179999999999999E-006    -1132891.61735775     
  7.200000000000001E-006    -951094.712065461     
  7.220000000000000E-006    -753984.905990430     
  7.240000000000000E-006    -552546.318594378     
  7.260000000000000E-006    -356740.922398903     
  7.280000000000000E-006    -175008.277809327     
  7.300000000000000E-006    -13853.6140889889     
  7.319999999999999E-006     122405.660019823     
  7.339999999999999E-006     231688.451101887     
  7.359999999999999E-006     313955.836915287     
  7.380000000000000E-006     370796.992660149     
  7.400000000000000E-006     404885.660701575     
  7.420000000000000E-006     419441.795704612     
  7.440000000000000E-006     417811.744401035     
  7.460000000000000E-006     403193.702382574     
  7.480000000000000E-006     378482.120364472     
  7.499999999999999E-006     346210.064243321     
  7.519999999999999E-006     308537.587323303     
  7.540000000000001E-006     267243.111679158     
  7.560000000000000E-006     223753.784954918     
  7.580000000000000E-006     179263.450938700     
  7.600000000000000E-006     134931.141949957     
  7.620000000000000E-006     92105.4271090079     
  7.640000000000000E-006     52476.2042460558     
  7.660000000000000E-006     18062.0398940394     
  7.679999999999999E-006    -9006.41906103310     
  7.699999999999999E-006    -26890.8430246351     
  7.720000000000001E-006    -34520.7023837627     
  7.740000000000000E-006    -31965.0671536245     
  7.760000000000000E-006    -20602.6861268382     
  7.780000000000000E-006    -3076.99999856350     
  7.800000000000000E-006     16950.8319309583     
  7.820000000000000E-006     35215.1449019077     
  7.839999999999999E-006     47410.4567686423     
  7.859999999999999E-006     49900.0245788653     
  7.879999999999999E-006     40473.4459086398     
  7.900000000000001E-006     18983.7281275172     
  7.920000000000000E-006    -12330.3415833020     
  7.940000000000000E-006    -49010.4669587705     
  7.960000000000000E-006    -85057.3037429999     
  7.980000000000000E-006    -113960.755552861     
  8.000000000000000E-006    -129835.587459654     
  8.019999999999999E-006    -128411.814463549     
  8.039999999999999E-006    -107746.280236170     
  8.059999999999999E-006    -68673.2460028541     
  8.080000000000001E-006    -14993.1681551525     
  8.100000000000000E-006     46678.9984086195     
  8.120000000000000E-006     107498.308930461     
  8.140000000000000E-006     157491.936530359     
  8.160000000000000E-006     187140.035893186     
  8.180000000000000E-006     189176.600390933     
  8.199999999999999E-006     160219.898427556     
  8.219999999999999E-006     101810.337303514     
  8.239999999999999E-006     20558.9535659203     
  8.260000000000001E-006    -72614.3684535810     
  8.280000000000000E-006    -163994.814930857     
  8.300000000000000E-006    -239094.255671727     
  8.320000000000000E-006    -284850.178510695     
  8.340000000000000E-006    -291699.664093825     
  8.360000000000000E-006    -255266.984010480     
  8.379999999999999E-006    -177380.339558832     
  8.399999999999999E-006    -66217.3153146823     
  8.419999999999999E-006     64477.6169462414     
  8.440000000000001E-006     197030.096269166     
  8.460000000000000E-006     312095.496710026     
  8.480000000000000E-006     391287.232597896     
  8.500000000000000E-006     419952.848447065     
  8.520000000000000E-006     389737.558759772     
  8.540000000000000E-006     300464.541789863     
  8.559999999999999E-006     160863.868381712     
  8.579999999999999E-006    -12209.1188106541     
  8.600000000000001E-006    -196041.936649017     
  8.620000000000000E-006    -365324.640832075     
  8.640000000000000E-006    -495688.381166693     
  8.660000000000000E-006    -566879.508314652     
  8.680000000000000E-006    -565313.611090104     
  8.700000000000000E-006    -486126.650109897     
  8.720000000000000E-006    -334663.754257871     
  8.739999999999999E-006    -126909.033815077     
  8.759999999999999E-006     111767.139633254     
  8.780000000000001E-006     349843.813282952     
  8.800000000000000E-006     554400.418765348     
  8.820000000000000E-006     696202.293142809     
  8.840000000000000E-006     753870.639541074     
  8.860000000000000E-006     716409.563291338     
  8.880000000000000E-006     584203.403804529     
  8.899999999999999E-006     369140.565019011     
  8.919999999999999E-006     94105.0212801979     
  8.939999999999999E-006    -208690.459733548     
  8.960000000000001E-006    -501134.448456976     
  8.980000000000000E-006    -744324.873087364     
  9.000000000000000E-006    -904345.581458750     
  9.020000000000000E-006    -957249.470598431     
  9.040000000000000E-006    -892228.728448058     
  9.060000000000000E-006    -712792.933419559     
  9.079999999999999E-006    -436390.104680682     
  9.099999999999999E-006    -92957.6286146038     
  9.119999999999999E-006     277718.486352469     
  9.140000000000001E-006     630369.404835728     
  9.160000000000000E-006     920208.496651914     
  9.180000000000000E-006     1109274.52565068     
  9.200000000000000E-006     1171538.70833447     
  9.220000000000000E-006     1095779.09604319     
  9.240000000000000E-006     886414.294658645     
  9.259999999999999E-006     563107.992328869     
  9.279999999999999E-006     159505.819073492     
  9.299999999999999E-006    -279336.853607472     
  9.320000000000001E-006    -701600.051491501     
  9.340000000000000E-006    -1055486.77978815     
  9.360000000000000E-006    -1296734.97934537     
  9.380000000000000E-006    -1394620.72870723     
  9.400000000000000E-006    -1335064.81843671     
  9.420000000000000E-006    -1121108.03299222     
  9.439999999999999E-006    -772113.935407039     
  9.459999999999999E-006    -322626.534173276     
  9.479999999999999E-006     179659.736234171     
  9.500000000000001E-006     678138.976318225     
  9.520000000000000E-006     1114208.93655527     
  9.540000000000000E-006     1435610.66512839     
  9.560000000000000E-006     1603685.58297764     
  9.580000000000000E-006     1597533.94144911     
  9.600000000000000E-006     1414979.11925444     
  9.619999999999999E-006     1071790.09575170     
  9.639999999999999E-006     600512.527926009     
  9.660000000000001E-006     48814.9634437390     
  9.680000000000000E-006    -524097.457156822     
  9.700000000000000E-006    -1054056.17258789     
  9.720000000000000E-006    -1480543.45044449     
  9.740000000000000E-006    -1754876.42511925     
  9.760000000000000E-006    -1845701.77622460     
  9.780000000000000E-006    -1741212.46102328     
  9.799999999999999E-006    -1449164.24325366     
  9.819999999999999E-006    -996020.905485319     
  9.840000000000001E-006    -425482.232631181     
  9.860000000000000E-006     204485.073706428     
  9.880000000000000E-006     827169.854019130     
  9.900000000000000E-006     1375043.25319549     
  9.920000000000000E-006     1788241.20479038     
  9.940000000000000E-006     2021432.08439820     
  9.960000000000000E-006     2048125.42396825     
  9.979999999999999E-006     1862742.72723742     
  9.999999999999999E-006     1481068.74316769     
  1.002000000000000E-005     939134.116721138     
  1.004000000000000E-005     290135.445530674     
  1.006000000000000E-005    -400706.863291203     
  1.008000000000000E-005    -1062912.18880631     
  1.010000000000000E-005    -1628228.92132934     
  1.012000000000000E-005    -2037649.86629208     
  1.014000000000000E-005    -2247191.87374001     
  1.016000000000000E-005    -2232388.77869719     
  1.018000000000000E-005    -1991353.17474437     
  1.020000000000000E-005    -1545680.12591865     
  1.022000000000000E-005    -938400.020654457     
  1.024000000000000E-005    -229071.908799356     
  1.026000000000000E-005     512732.576416352     
  1.028000000000000E-005     1214260.89110869     
  1.030000000000000E-005     1806239.44408137     
  1.032000000000000E-005     2229168.87068132     
  1.034000000000000E-005     2438986.67355256     
  1.036000000000000E-005     2411811.76184333     
  1.038000000000000E-005     2147129.14531506     
  1.040000000000000E-005     1668494.61486351     
  1.042000000000000E-005     1021198.04571608     
  1.044000000000000E-005     267243.285136753     
  1.046000000000000E-005    -521108.514356451     
  1.048000000000000E-005    -1268210.76693904     
  1.050000000000000E-005    -1902074.63405000     
  1.052000000000000E-005    -2361157.79988898     
  1.054000000000000E-005    -2600057.35694318     