 -1.200000000000000E-006    0.000000000000000E+000
 -1.180000000000000E-006    0.000000000000000E+000
 -1.160000000000000E-006    0.000000000000000E+000
 -1.140000000000000E-006    0.000000000000000E+000
 -1.120000000000000E-006    0.000000000000000E+000
 -1.100000000000000E-006    0.000000000000000E+000
 -1.080000000000000E-006    0.000000000000000E+000
 -1.060000000000000E-006    0.000000000000000E+000
 -1.040000000000000E-006    0.000000000000000E+000
 -1.020000000000000E-006    0.000000000000000E+000
 -1.000000000000000E-006    0.000000000000000E+000
 -9.799999999999999E-007    0.000000000000000E+000
 -9.599999999999999E-007    0.000000000000000E+000
 -9.399999999999999E-007    0.000000000000000E+000
 -9.199999999999999E-007    0.000000000000000E+000
 -9.000000000000000E-007    0.000000000000000E+000
 -8.799999999999999E-007    0.000000000000000E+000
 -8.599999999999999E-007    0.000000000000000E+000
 -8.400000000000000E-007    0.000000000000000E+000
 -8.200000000000000E-007    0.000000000000000E+000
 -8.000000000000000E-007    0.000000000000000E+000
 -7.799999999999999E-007    0.000000000000000E+000
 -7.599999999999999E-007    0.000000000000000E+000
 -7.399999999999999E-007    0.000000000000000E+000
 -7.199999999999999E-007    0.000000000000000E+000
 -7.000000000000000E-007    0.000000000000000E+000
 -6.799999999999999E-007    0.000000000000000E+000
 -6.599999999999999E-007    0.000000000000000E+000
 -6.399999999999999E-007    0.000000000000000E+000
 -6.199999999999999E-007    0.000000000000000E+000
 -6.000000000000000E-007    0.000000000000000E+000
 -5.800000000000000E-007    0.000000000000000E+000
 -5.599999999999999E-007    0.000000000000000E+000
 -5.399999999999999E-007    0.000000000000000E+000
 -5.199999999999999E-007    0.000000000000000E+000
 -5.000000000000000E-007    0.000000000000000E+000
 -4.800000000000000E-007    0.000000000000000E+000
 -4.599999999999999E-007    0.000000000000000E+000
 -4.399999999999999E-007    0.000000000000000E+000
 -4.199999999999999E-007    0.000000000000000E+000
 -4.000000000000000E-007    0.000000000000000E+000
 -3.800000000000000E-007    0.000000000000000E+000
 -3.599999999999999E-007    0.000000000000000E+000
 -3.399999999999999E-007    0.000000000000000E+000
 -3.199999999999999E-007    0.000000000000000E+000
 -2.999999999999999E-007    0.000000000000000E+000
 -2.800000000000000E-007    0.000000000000000E+000
 -2.599999999999999E-007    0.000000000000000E+000
 -2.399999999999998E-007    0.000000000000000E+000
 -2.200000000000000E-007    0.000000000000000E+000
 -2.000000000000000E-007    0.000000000000000E+000
 -1.800000000000000E-007    0.000000000000000E+000
 -1.600000000000000E-007    0.000000000000000E+000
 -1.399999999999999E-007    0.000000000000000E+000
 -1.199999999999999E-007    0.000000000000000E+000
 -9.999999999999989E-008    0.000000000000000E+000
 -7.999999999999987E-008    0.000000000000000E+000
 -5.999999999999985E-008    0.000000000000000E+000
 -3.999999999999983E-008    0.000000000000000E+000
 -2.000000000000002E-008    0.000000000000000E+000
  0.000000000000000E+000    0.000000000000000E+000
  2.000000000000002E-008    0.000000000000000E+000
  4.000000000000004E-008    0.000000000000000E+000
  6.000000000000006E-008    0.000000000000000E+000
  8.000000000000008E-008    0.000000000000000E+000
  1.000000000000001E-007    0.000000000000000E+000
  1.200000000000001E-007    0.000000000000000E+000
  1.400000000000001E-007    0.000000000000000E+000
  1.600000000000002E-007    0.000000000000000E+000
  1.800000000000002E-007    0.000000000000000E+000
  2.000000000000000E-007    0.000000000000000E+000
  2.200000000000000E-007    0.000000000000000E+000
  2.400000000000000E-007    0.000000000000000E+000
  2.600000000000001E-007    0.000000000000000E+000
  2.800000000000001E-007    0.000000000000000E+000
  3.000000000000001E-007    0.000000000000000E+000
  3.200000000000001E-007    0.000000000000000E+000
  3.400000000000001E-007    0.000000000000000E+000
  3.600000000000002E-007    0.000000000000000E+000
  3.800000000000002E-007    0.000000000000000E+000
  4.000000000000000E-007    0.000000000000000E+000
  4.200000000000000E-007    0.000000000000000E+000
  4.400000000000000E-007    0.000000000000000E+000
  4.600000000000000E-007    0.000000000000000E+000
  4.800000000000001E-007    0.000000000000000E+000
  5.000000000000001E-007    0.000000000000000E+000
  5.200000000000001E-007    0.000000000000000E+000
  5.400000000000001E-007    0.000000000000000E+000
  5.600000000000001E-007    0.000000000000000E+000
  5.800000000000002E-007    0.000000000000000E+000
  6.000000000000002E-007    0.000000000000000E+000
  6.200000000000000E-007    0.000000000000000E+000
  6.400000000000000E-007    0.000000000000000E+000
  6.600000000000000E-007    0.000000000000000E+000
  6.800000000000001E-007    0.000000000000000E+000
  7.000000000000001E-007    0.000000000000000E+000
  7.200000000000003E-007    0.000000000000000E+000
  7.400000000000001E-007    0.000000000000000E+000
  7.599999999999999E-007    0.000000000000000E+000
  7.800000000000002E-007    0.000000000000000E+000
  8.000000000000000E-007    0.000000000000000E+000
  8.200000000000002E-007    0.000000000000000E+000
  8.400000000000000E-007    0.000000000000000E+000
  8.600000000000002E-007    0.000000000000000E+000
  8.800000000000000E-007    0.000000000000000E+000
  9.000000000000003E-007    0.000000000000000E+000
  9.200000000000001E-007    0.000000000000000E+000
  9.399999999999999E-007    0.000000000000000E+000
  9.600000000000001E-007    0.000000000000000E+000
  9.799999999999999E-007    0.000000000000000E+000
  1.000000000000000E-006    0.000000000000000E+000
  1.020000000000000E-006    0.000000000000000E+000
  1.040000000000000E-006    0.000000000000000E+000
  1.060000000000000E-006    0.000000000000000E+000
  1.080000000000000E-006    0.000000000000000E+000
  1.100000000000000E-006    0.000000000000000E+000
  1.120000000000000E-006    0.000000000000000E+000
  1.140000000000000E-006    0.000000000000000E+000
  1.160000000000000E-006    0.000000000000000E+000
  1.180000000000000E-006    0.000000000000000E+000
  1.200000000000000E-006    0.000000000000000E+000
  1.220000000000000E-006    0.000000000000000E+000
  1.240000000000000E-006    0.000000000000000E+000
  1.260000000000000E-006    0.000000000000000E+000
  1.280000000000000E-006    0.000000000000000E+000
  1.300000000000000E-006    0.000000000000000E+000
  1.320000000000000E-006    0.000000000000000E+000
  1.340000000000000E-006    0.000000000000000E+000
  1.360000000000000E-006    0.000000000000000E+000
  1.380000000000000E-006    0.000000000000000E+000
  1.400000000000000E-006    0.000000000000000E+000
  1.420000000000000E-006    0.000000000000000E+000
  1.440000000000000E-006    0.000000000000000E+000
  1.460000000000000E-006    0.000000000000000E+000
  1.480000000000000E-006    0.000000000000000E+000
  1.500000000000000E-006    0.000000000000000E+000
  1.520000000000000E-006    0.000000000000000E+000
  1.540000000000000E-006    0.000000000000000E+000
  1.560000000000000E-006    0.000000000000000E+000
  1.580000000000000E-006    0.000000000000000E+000
  1.600000000000000E-006    0.000000000000000E+000
  1.620000000000000E-006    0.000000000000000E+000
  1.640000000000000E-006    0.000000000000000E+000
  1.660000000000000E-006    0.000000000000000E+000
  1.680000000000000E-006    0.000000000000000E+000
  1.700000000000000E-006    0.000000000000000E+000
  1.720000000000000E-006    0.000000000000000E+000
  1.740000000000000E-006    0.000000000000000E+000
  1.760000000000000E-006    0.000000000000000E+000
  1.780000000000000E-006    0.000000000000000E+000
  1.800000000000000E-006    0.000000000000000E+000
  1.820000000000000E-006    0.000000000000000E+000
  1.840000000000000E-006    0.000000000000000E+000
  1.860000000000000E-006    0.000000000000000E+000
  1.880000000000000E-006    0.000000000000000E+000
  1.900000000000000E-006    0.000000000000000E+000
  1.920000000000000E-006    0.000000000000000E+000
  1.940000000000000E-006    0.000000000000000E+000
  1.960000000000000E-006    0.000000000000000E+000
  1.980000000000000E-006    0.000000000000000E+000
  2.000000000000000E-006    0.000000000000000E+000
  2.020000000000000E-006    0.000000000000000E+000
  2.040000000000000E-006    0.000000000000000E+000
  2.060000000000000E-006    0.000000000000000E+000
  2.080000000000000E-006    0.000000000000000E+000
  2.100000000000000E-006    0.000000000000000E+000
  2.120000000000000E-006    0.000000000000000E+000
  2.140000000000000E-006    0.000000000000000E+000
  2.160000000000000E-006    0.000000000000000E+000
  2.180000000000000E-006    0.000000000000000E+000
  2.200000000000000E-006    0.000000000000000E+000
  2.220000000000000E-006    0.000000000000000E+000
  2.240000000000000E-006    0.000000000000000E+000
  2.260000000000000E-006    0.000000000000000E+000
  2.280000000000000E-006    0.000000000000000E+000
  2.300000000000000E-006    0.000000000000000E+000
  2.320000000000000E-006    0.000000000000000E+000
  2.340000000000000E-006    0.000000000000000E+000
  2.360000000000000E-006    0.000000000000000E+000
  2.380000000000000E-006    0.000000000000000E+000
  2.400000000000000E-006    0.000000000000000E+000
  2.420000000000000E-006    0.000000000000000E+000
  2.440000000000000E-006    0.000000000000000E+000
  2.460000000000000E-006    0.000000000000000E+000
  2.480000000000000E-006    0.000000000000000E+000
  2.500000000000000E-006    0.000000000000000E+000
  2.520000000000000E-006    0.000000000000000E+000
  2.540000000000000E-006    0.000000000000000E+000
  2.560000000000000E-006    0.000000000000000E+000
  2.580000000000000E-006    0.000000000000000E+000
  2.600000000000000E-006    0.000000000000000E+000
  2.620000000000000E-006    0.000000000000000E+000
  2.640000000000001E-006    0.000000000000000E+000
  2.660000000000000E-006    0.000000000000000E+000
  2.680000000000000E-006    0.000000000000000E+000
  2.700000000000000E-006    0.000000000000000E+000
  2.720000000000000E-006    0.000000000000000E+000
  2.740000000000000E-006    0.000000000000000E+000
  2.760000000000000E-006    0.000000000000000E+000
  2.780000000000000E-006    0.000000000000000E+000
  2.800000000000000E-006    0.000000000000000E+000
  2.820000000000001E-006    0.000000000000000E+000
  2.840000000000000E-006    0.000000000000000E+000
  2.860000000000000E-006    0.000000000000000E+000
  2.880000000000000E-006    0.000000000000000E+000
  2.900000000000000E-006    0.000000000000000E+000
  2.920000000000000E-006    0.000000000000000E+000
  2.940000000000000E-006    0.000000000000000E+000
  2.960000000000000E-006    0.000000000000000E+000
  2.980000000000000E-006    0.000000000000000E+000
  3.000000000000000E-006    0.000000000000000E+000
  3.020000000000000E-006    0.000000000000000E+000
  3.040000000000000E-006    0.000000000000000E+000
  3.060000000000000E-006    0.000000000000000E+000
  3.080000000000000E-006    0.000000000000000E+000
  3.100000000000000E-006    0.000000000000000E+000
  3.120000000000000E-006    0.000000000000000E+000
  3.140000000000000E-006    0.000000000000000E+000
  3.160000000000000E-006    0.000000000000000E+000
  3.180000000000000E-006    0.000000000000000E+000
  3.200000000000000E-006    0.000000000000000E+000
  3.220000000000000E-006    0.000000000000000E+000
  3.240000000000000E-006    0.000000000000000E+000
  3.260000000000001E-006    0.000000000000000E+000
  3.280000000000000E-006    0.000000000000000E+000
  3.300000000000000E-006    0.000000000000000E+000
  3.320000000000000E-006    0.000000000000000E+000
  3.340000000000000E-006    0.000000000000000E+000
  3.360000000000000E-006    0.000000000000000E+000
  3.380000000000000E-006   -2.106278524830335E-037
  3.400000000000000E-006   -4.212557049660670E-037
  3.420000000000000E-006    4.335947151736583E-037
  3.440000000000001E-006    7.003198631515808E-037
  3.460000000000000E-006    5.857293719021943E-037
  3.480000000000000E-006    1.910436776564411E-036
  3.500000000000000E-006   -1.446220916338907E-036
  3.520000000000000E-006   -2.165892011728272E-037
  3.540000000000000E-006    2.747562109930867E-036
  3.560000000000000E-006   -5.955037932131311E-036
  3.580000000000000E-006    1.090403231897082E-036
  3.600000000000000E-006    4.276863146309394E-036
  3.620000000000000E-006   -1.310626484043404E-035
  3.640000000000000E-006    1.548528355470109E-035
  3.660000000000000E-006    1.485744186749125E-035
  3.680000000000000E-006   -4.063548179734302E-035
  3.700000000000001E-006    1.873936966767233E-035
  3.720000000000000E-006    1.245157425831441E-035
  3.740000000000000E-006   -8.004771250889907E-035
  3.760000000000000E-006    1.030252330621063E-034
  3.780000000000000E-006    7.164445286437592E-035
  3.800000000000000E-006   -1.893860238835954E-034
  3.820000000000001E-006    1.259467898190031E-034
  3.840000000000001E-006   -2.450873375804907E-035
  3.860000000000000E-006   -4.086565383311982E-034
  3.880000000000000E-006    5.958456677218386E-034
  3.900000000000000E-006    2.863955641996368E-034
  3.920000000000000E-006   -8.126015793933690E-034
  3.940000000000000E-006    7.021108765995626E-034
  3.959999999999999E-006   -5.088995297238041E-034
  3.980000000000001E-006   -1.906881341806152E-033
  4.000000000000001E-006    3.053889950165726E-033
  4.020000000000000E-006    1.121883255199660E-033
  4.040000000000000E-006   -3.064507244747274E-033
  4.060000000000000E-006    3.130468755411661E-033
  4.080000000000000E-006   -4.195715788296998E-033
  4.100000000000000E-006   -7.557089406135096E-033
  4.120000000000000E-006    1.551123436380784E-032
  4.139999999999999E-006    4.949853986864838E-033
  4.160000000000001E-006   -1.170107980230408E-032
  4.180000000000001E-006    6.828750927701360E-033
  4.200000000000000E-006   -3.134903374650478E-032
  4.220000000000000E-006   -2.393651638610716E-032
  4.240000000000000E-006    9.208214002226529E-032
  4.260000000000000E-006    5.270311709149268E-032
  4.280000000000000E-006   -3.371352358671382E-032
  4.299999999999999E-006   -6.691314773163203E-032
  4.320000000000001E-006   -3.101206447068403E-031
  4.340000000000001E-006   -1.491717546446522E-031
  4.360000000000001E-006    6.116173333702313E-031
  4.380000000000000E-006    8.042605259817159E-031
  4.400000000000000E-006    4.427439756739176E-031
  4.420000000000000E-006   -7.597907807687273E-031
  4.440000000000000E-006   -3.268960280948497E-030
  4.460000000000000E-006   -3.009863221561432E-030
  4.479999999999999E-006    2.247349073297673E-030
  4.500000000000001E-006    8.504525374154749E-030
  4.520000000000001E-006    1.176226384950716E-029
  4.540000000000001E-006    2.648739465999846E-030
  4.560000000000000E-006   -2.364033102401890E-029
  4.580000000000000E-006   -4.320604109324737E-029
  4.600000000000000E-006   -2.569022430945887E-029
  4.620000000000000E-006    3.990333411819640E-029
  4.640000000000000E-006    1.309656090643845E-028
  4.659999999999999E-006    1.471157068202174E-028
  4.680000000000001E-006   -2.157279201612232E-029
  4.700000000000001E-006   -3.296335941501934E-028
  4.720000000000001E-006   -5.432153155312559E-028
  4.740000000000000E-006   -3.023901945260662E-028
  4.760000000000000E-006    6.007371437908758E-028
  4.780000000000000E-006    1.681925460324064E-027
  4.800000000000000E-006    1.753644858516441E-027
  4.820000000000000E-006   -2.443983052414840E-028
  4.839999999999999E-006   -4.019632957251225E-027
  4.860000000000001E-006   -6.753862792948881E-027
  4.880000000000001E-006   -3.936603460752022E-027
  4.900000000000001E-006    6.492038616163205E-027
  4.920000000000000E-006    1.956546498301912E-026
  4.940000000000000E-006    2.239501997500862E-026
  4.960000000000000E-006    1.181907942261356E-027
  4.980000000000000E-006   -4.268128982337928E-026
  5.000000000000000E-006   -7.943399361220597E-026
  5.019999999999999E-006   -5.926209400668122E-026
  5.040000000000001E-006    5.006355398159657E-026
  5.060000000000001E-006    2.087063872346366E-025
  5.080000000000000E-006    2.803505285820808E-025
  5.100000000000000E-006    9.873497789193904E-026
  5.120000000000000E-006   -3.713740356317090E-025
  5.140000000000000E-006   -8.722236610506943E-025
  5.160000000000000E-006   -8.652368573466204E-025
  5.180000000000000E-006    1.250366693548019E-025
  5.199999999999999E-006    1.917090329455139E-024
  5.220000000000001E-006    3.269096619867424E-024
  5.240000000000001E-006    2.269141812095150E-024
  5.260000000000000E-006   -2.179638087689363E-024
  5.280000000000000E-006   -8.399294841783028E-024
  5.300000000000000E-006   -1.123557445144127E-023
  5.320000000000000E-006   -4.487746254346084E-024
  5.340000000000000E-006    1.336122720916591E-023
  5.360000000000000E-006    3.327328892318281E-023
  5.380000000000001E-006    3.581271488604751E-023
  5.400000000000001E-006    2.508666460850071E-024
  5.420000000000001E-006   -6.377341760898086E-023
  5.440000000000000E-006   -1.228876782773033E-022
  5.460000000000000E-006   -1.064047763118289E-022
  5.480000000000000E-006    3.602615070457013E-023
  5.500000000000000E-006    2.686489038923132E-022
  5.520000000000000E-006    4.312042109730421E-022
  5.539999999999999E-006    2.947907323927310E-022
  5.560000000000001E-006   -2.641124962204420E-022
  5.580000000000001E-006   -1.047176065211361E-021
  5.600000000000001E-006   -1.457640592862146E-021
  5.620000000000000E-006   -7.583637803662836E-022
  5.640000000000000E-006    1.311188522949052E-021
  5.660000000000000E-006    3.870438140155767E-021
  5.680000000000000E-006    4.802631328112442E-021
  5.700000000000000E-006    1.795737621254663E-021
  5.719999999999999E-006   -5.557662143858278E-021
  5.740000000000001E-006   -1.376931973515624E-020
  5.760000000000001E-006   -1.558900525477875E-020
  5.780000000000001E-006   -3.872034762871206E-021
  5.800000000000000E-006    2.148090046688555E-020
  5.820000000000000E-006    4.762686693874814E-020
  5.840000000000000E-006    5.035370185307205E-020
  5.860000000000000E-006    7.649988651591612E-021
  5.880000000000000E-006   -7.783512361097440E-020
  5.899999999999999E-006   -1.612839012396300E-019
  5.920000000000001E-006   -1.633095895625579E-019
  5.940000000000001E-006   -1.551296265925242E-020
  5.960000000000001E-006    2.678787132736602E-019
  5.980000000000000E-006    5.371345934430360E-019
  6.000000000000000E-006    5.354617938111100E-019
  6.020000000000000E-006    4.634223298606763E-020
  6.040000000000000E-006   -8.802212060816530E-019
  6.060000000000000E-006   -1.763237510687192E-018
  6.079999999999999E-006   -1.781019074063522E-018
  6.100000000000001E-006   -2.314221891308925E-019
  6.120000000000001E-006    2.759046131524353E-018
  6.140000000000001E-006    5.705145640657197E-018
  6.160000000000000E-006    6.004829702580645E-018
  6.180000000000000E-006    1.326059387453108E-018
  6.200000000000000E-006   -8.187315865014166E-018
  6.220000000000000E-006   -1.814975713842110E-017
  6.240000000000000E-006   -2.042334416857384E-017
  6.260000000000001E-006   -7.125043279228581E-018
  6.280000000000001E-006    2.258073245002859E-017
  6.300000000000001E-006    5.646762251653725E-017
  6.320000000000000E-006    6.952234846054701E-017
  6.340000000000000E-006    3.490484558514251E-017
  6.360000000000000E-006   -5.546833992665925E-017
  6.380000000000000E-006   -1.702740171535078E-016
  6.400000000000000E-006   -2.345727547642882E-016
  6.420000000000000E-006   -1.574251612124442E-016
  6.439999999999999E-006    1.072790860198247E-016
  6.459999999999999E-006    4.904378465266361E-016
  6.480000000000001E-006    7.760323428812793E-016
  6.500000000000000E-006    6.612559780712869E-016
  6.520000000000000E-006   -7.067363911286966E-017
  6.540000000000000E-006   -1.315641498782081E-015
  6.560000000000000E-006   -2.487041653007279E-015
  6.580000000000000E-006   -2.606310553177738E-015
  6.599999999999999E-006   -7.643583889503515E-016
  6.619999999999999E-006    3.121037267282547E-015
  6.639999999999999E-006    7.607721602153744E-015
  6.660000000000001E-006    9.669240692652967E-015
  6.680000000000000E-006    5.803806895772238E-015
  6.700000000000000E-006   -5.638435694227163E-015
  6.720000000000000E-006   -2.174622696116975E-014
  6.740000000000000E-006   -3.372513566129003E-014
  6.760000000000000E-006   -2.904726034055718E-014
  6.779999999999999E-006    1.860922047743521E-015
  6.799999999999999E-006    5.594573958173474E-014
  6.819999999999999E-006    1.099091056353517E-013
  6.840000000000001E-006    1.220821800644795E-013
  6.860000000000000E-006    4.983841378280256E-014
  6.880000000000000E-006   -1.184940884917670E-013
  6.900000000000000E-006   -3.301575810836033E-013
  6.920000000000000E-006   -4.572824000054510E-013
  6.940000000000000E-006   -3.351809593649125E-013
  6.959999999999999E-006    1.409433282693958E-013
  6.979999999999999E-006    8.886052434824629E-013
  6.999999999999999E-006    1.552975630576294E-012
  7.020000000000001E-006    1.562252378699706E-012
  7.040000000000000E-006    3.915749741996789E-013
  7.060000000000000E-006   -2.001910139770953E-012
  7.080000000000000E-006   -4.769226131090528E-012
  7.100000000000000E-006   -6.114744544382666E-012
  7.120000000000000E-006   -3.913113903547594E-012
  7.139999999999999E-006    2.948490704814719E-012
  7.159999999999999E-006    1.295354055147456E-011
  7.179999999999999E-006    2.106625595201755E-011
  7.200000000000001E-006    1.978776390782659E-011
  7.220000000000000E-006    2.848015569393954E-012
  7.240000000000000E-006   -2.921654994037584E-011
  7.260000000000000E-006   -6.430813756023108E-011
  7.280000000000000E-006   -7.895646337280297E-011
  7.300000000000000E-006   -4.699018860968298E-011
  7.319999999999999E-006    4.337433549950887E-011
  7.339999999999999E-006    1.702818608508634E-010
  7.359999999999999E-006    2.692134851233347E-010
  7.380000000000000E-006    2.481567092063089E-010
  7.400000000000000E-006    3.357787981037253E-011
  7.420000000000000E-006   -3.635532011089380E-010
  7.440000000000000E-006   -7.944094317383692E-010
  7.460000000000000E-006   -9.785503694432012E-010
  7.480000000000000E-006   -6.075361067565537E-010
  7.499999999999999E-006    4.584204804614945E-010
  7.519999999999999E-006    1.973286317283615E-009
  7.540000000000001E-006    3.204567965036899E-009
  7.560000000000000E-006    3.099587001242953E-009
  7.580000000000000E-006    7.875203031894900E-010
  7.600000000000000E-006   -3.697837232016814E-009
  7.620000000000000E-006   -8.818025328648312E-009
  7.640000000000000E-006   -1.154303537529400E-008
  7.660000000000000E-006   -8.380459200381162E-009
  7.679999999999999E-006    2.593197584183507E-009
  7.699999999999999E-006    1.939211751705399E-008
  7.720000000000001E-006    3.482368111123380E-008
  7.740000000000000E-006    3.777503196569923E-008
  7.760000000000000E-006    1.791934255479589E-008
  7.780000000000000E-006   -2.702189083683939E-008
  7.800000000000000E-006   -8.453816149753294E-008
  7.820000000000000E-006   -1.257998308296447E-007
  7.839999999999999E-006   -1.136279740431694E-007
  7.859999999999999E-006   -2.086604525553950E-008
  7.879999999999999E-006    1.459920252941324E-007
  7.900000000000001E-006    3.295498694073635E-007
  7.920000000000000E-006    4.253977647730111E-007
  7.940000000000000E-006    3.177129819874151E-007
  7.960000000000000E-006   -5.611275248157160E-008
  7.980000000000000E-006   -6.339825579134861E-007
  8.000000000000000E-006   -1.190317191094756E-006
  8.019999999999999E-006   -1.373134816269410E-006
  8.039999999999999E-006   -8.397574774838962E-007
  8.059999999999999E-006    5.319163623450188E-007
  8.080000000000001E-006    2.438053798168444E-006
  8.100000000000000E-006    4.074382827276548E-006
  8.120000000000000E-006    4.312212366633260E-006
  8.140000000000000E-006    2.166631046184668E-006
  8.160000000000000E-006   -2.547166335572102E-006
  8.180000000000000E-006   -8.640241289803134E-006
  8.199999999999999E-006   -1.343364270337447E-005
  8.219999999999999E-006   -1.342267517299253E-005
  8.239999999999999E-006   -5.783613996336723E-006
  8.260000000000001E-006    9.652588111246499E-006
  8.280000000000000E-006    2.879811183048075E-005
  8.300000000000000E-006    4.316640456843660E-005
  8.320000000000000E-006    4.206619347897675E-005
  8.340000000000000E-006    1.720696286868188E-005
  8.360000000000000E-006   -3.146751026150728E-005
  8.379999999999999E-006   -9.118585264886297E-005
  8.399999999999999E-006   -1.361075261056666E-004
  8.419999999999999E-006   -1.338800357256931E-004
  8.440000000000001E-006   -5.915889398906811E-005
  8.460000000000000E-006    8.928349226038476E-005
  8.480000000000000E-006    2.748366461701325E-004
  8.500000000000000E-006    4.215593037833391E-004
  8.520000000000000E-006    4.320659592760445E-004
  8.540000000000000E-006    2.257934013513523E-004
  8.559999999999999E-006   -2.110899478693453E-004
  8.579999999999999E-006   -7.831681192721647E-004
  8.600000000000001E-006   -1.275665154387037E-003
  8.620000000000000E-006   -1.398402971005203E-003
  8.640000000000000E-006   -8.898991225560246E-004
  8.660000000000000E-006    3.387206060044344E-004
  8.680000000000000E-006    2.069838994004724E-003
  8.700000000000000E-006    3.725526398198367E-003
  8.720000000000000E-006    4.460230800608129E-003
  8.739999999999999E-006    3.429469904553918E-003
  8.759999999999999E-006    1.946870536459187E-004
  8.780000000000001E-006   -4.859701047684063E-003
  8.800000000000000E-006   -1.028806244881726E-002
  8.820000000000000E-006   -1.372469843944102E-002
  8.840000000000000E-006   -1.252566413218648E-002
  8.860000000000000E-006   -4.858468941377170E-003
  8.880000000000000E-006    9.045733871342021E-003
  8.899999999999999E-006    2.597458807992151E-002
  8.919999999999999E-006    3.973244991355752E-002
  8.939999999999999E-006    4.249127891060561E-002
  8.960000000000001E-006    2.752392246224399E-002
  8.980000000000000E-006   -7.258659368916072E-003
  9.000000000000000E-006   -5.617168282041585E-002
  9.020000000000000E-006   -0.104595475354030     
  9.040000000000000E-006   -0.131196167524316     
  9.060000000000000E-006   -0.114074318518239     
  9.079999999999999E-006   -3.991678361526154E-002
  9.099999999999999E-006    8.647037755213115E-002
  9.119999999999999E-006    0.236144746791309     
  9.140000000000001E-006    0.357551536644242     
  9.160000000000000E-006    0.388085010741316     
  9.180000000000000E-006    0.274998399098288     
  9.200000000000000E-006    8.366442189531864E-004
  9.220000000000000E-006   -0.395148510593029     
  9.240000000000000E-006   -0.809712363257181     
  9.259999999999999E-006    -1.09063608629615     
  9.279999999999999E-006    -1.07630167412628     
  9.299999999999999E-006   -0.653272360401736     
  9.320000000000001E-006    0.183827875528097     
  9.340000000000000E-006     1.29182197263280     
  9.360000000000000E-006     2.37903819418560     
  9.380000000000000E-006     3.05845235263396     
  9.400000000000000E-006     2.95069228703670     
  9.420000000000000E-006     1.81497871643835     
  9.439999999999999E-006   -0.329442549177706     
  9.459999999999999E-006    -3.13467279924630     
  9.479999999999999E-006    -5.94340853955035     
  9.500000000000001E-006    -7.90929450016648     
  9.520000000000000E-006    -8.20130604470959     
  9.540000000000000E-006    -6.24534403326797     
  9.560000000000000E-006    -1.93776074190904     
  9.580000000000000E-006     4.23401750294948     
  9.600000000000000E-006     11.2079846351201     
  9.619999999999999E-006     17.5093752703487     
  9.639999999999999E-006     21.5265427207931     
  9.660000000000001E-006     21.8388100663042     
  9.680000000000000E-006     17.5227216735324     
  9.700000000000000E-006     8.37236067511234     
  9.720000000000000E-006    -5.00554783195671     
  9.740000000000000E-006    -21.2314418939593     
  9.760000000000000E-006    -38.3141795147769     
  9.780000000000000E-006    -53.9101021631119     
  9.799999999999999E-006    -65.6550032440222     
  9.819999999999999E-006    -71.5417272692159     
  9.840000000000001E-006    -70.3035675413650     
  9.860000000000000E-006    -61.7346170437546     
  9.880000000000000E-006    -46.8413912386468     
  9.900000000000000E-006    -27.6956582831615     
  9.920000000000000E-006    -6.87088877399796     
  9.940000000000000E-006     13.5980716627423     
  9.960000000000000E-006     33.6913611903743     
  9.979999999999999E-006     57.1683175961766     
  9.999999999999999E-006     93.4089757849561     
  1.002000000000000E-005     159.150624842202     
  1.004000000000000E-005     280.076303666509     
  1.006000000000000E-005     492.414428283662     
  1.008000000000000E-005     844.920955219099     
  1.010000000000000E-005     1401.68739571610     
  1.012000000000000E-005     2246.06419494787     
  1.014000000000000E-005     3485.57700699643     
  1.016000000000000E-005     5257.10083004611     
  1.018000000000000E-005     7730.85837031338     
  1.020000000000000E-005     11111.2408533337     
  1.022000000000000E-005     15632.3166303497     
  1.024000000000000E-005     21545.8308320684     
  1.026000000000000E-005     29100.6368258066     
  1.028000000000000E-005     38512.9026129505     
  1.030000000000000E-005     49927.6908769023     
  1.032000000000000E-005     63373.3669950063     
  1.034000000000000E-005     78711.6767658201     
  1.036000000000000E-005     95585.6361930263     
  1.038000000000000E-005     113370.423293976     
  1.040000000000000E-005     131131.166281044     
  1.042000000000000E-005     147595.221102388     
  1.044000000000000E-005     161146.520301205     
  1.046000000000000E-005     169850.350804757     
  1.048000000000000E-005     171517.832259290     
  1.050000000000000E-005     163817.213386306     
  1.052000000000000E-005     144433.434633603     
  1.054000000000000E-005     111274.040439536     