 -1.200000000000000E-006    0.000000000000000E+000
 -1.180000000000000E-006    0.000000000000000E+000
 -1.160000000000000E-006    0.000000000000000E+000
 -1.140000000000000E-006    0.000000000000000E+000
 -1.120000000000000E-006    0.000000000000000E+000
 -1.100000000000000E-006    0.000000000000000E+000
 -1.080000000000000E-006    0.000000000000000E+000
 -1.060000000000000E-006    0.000000000000000E+000
 -1.040000000000000E-006    0.000000000000000E+000
 -1.020000000000000E-006    0.000000000000000E+000
 -1.000000000000000E-006    0.000000000000000E+000
 -9.799999999999999E-007    0.000000000000000E+000
 -9.599999999999999E-007    0.000000000000000E+000
 -9.399999999999999E-007    0.000000000000000E+000
 -9.199999999999999E-007    0.000000000000000E+000
 -9.000000000000000E-007    0.000000000000000E+000
 -8.799999999999999E-007    0.000000000000000E+000
 -8.599999999999999E-007    0.000000000000000E+000
 -8.400000000000000E-007    0.000000000000000E+000
 -8.200000000000000E-007    0.000000000000000E+000
 -8.000000000000000E-007    0.000000000000000E+000
 -7.799999999999999E-007    0.000000000000000E+000
 -7.599999999999999E-007    0.000000000000000E+000
 -7.399999999999999E-007    0.000000000000000E+000
 -7.199999999999999E-007    0.000000000000000E+000
 -7.000000000000000E-007    0.000000000000000E+000
 -6.799999999999999E-007    0.000000000000000E+000
 -6.599999999999999E-007    0.000000000000000E+000
 -6.399999999999999E-007    0.000000000000000E+000
 -6.199999999999999E-007    0.000000000000000E+000
 -6.000000000000000E-007    0.000000000000000E+000
 -5.800000000000000E-007    0.000000000000000E+000
 -5.599999999999999E-007    0.000000000000000E+000
 -5.399999999999999E-007    0.000000000000000E+000
 -5.199999999999999E-007    0.000000000000000E+000
 -5.000000000000000E-007    0.000000000000000E+000
 -4.800000000000000E-007    0.000000000000000E+000
 -4.599999999999999E-007    0.000000000000000E+000
 -4.399999999999999E-007    0.000000000000000E+000
 -4.199999999999999E-007    0.000000000000000E+000
 -4.000000000000000E-007    0.000000000000000E+000
 -3.800000000000000E-007    0.000000000000000E+000
 -3.599999999999999E-007    0.000000000000000E+000
 -3.399999999999999E-007    0.000000000000000E+000
 -3.199999999999999E-007    0.000000000000000E+000
 -2.999999999999999E-007    0.000000000000000E+000
 -2.800000000000000E-007    0.000000000000000E+000
 -2.599999999999999E-007    0.000000000000000E+000
 -2.399999999999998E-007    0.000000000000000E+000
 -2.200000000000000E-007    0.000000000000000E+000
 -2.000000000000000E-007    0.000000000000000E+000
 -1.800000000000000E-007    0.000000000000000E+000
 -1.600000000000000E-007    0.000000000000000E+000
 -1.399999999999999E-007    0.000000000000000E+000
 -1.199999999999999E-007    0.000000000000000E+000
 -9.999999999999989E-008    0.000000000000000E+000
 -7.999999999999987E-008    0.000000000000000E+000
 -5.999999999999985E-008    0.000000000000000E+000
 -3.999999999999983E-008    0.000000000000000E+000
 -2.000000000000002E-008    0.000000000000000E+000
  0.000000000000000E+000    0.000000000000000E+000
  2.000000000000002E-008    0.000000000000000E+000
  4.000000000000004E-008    0.000000000000000E+000
  6.000000000000006E-008    0.000000000000000E+000
  8.000000000000008E-008    0.000000000000000E+000
  1.000000000000001E-007    0.000000000000000E+000
  1.200000000000001E-007    0.000000000000000E+000
  1.400000000000001E-007    0.000000000000000E+000
  1.600000000000002E-007    0.000000000000000E+000
  1.800000000000002E-007    0.000000000000000E+000
  2.000000000000000E-007    0.000000000000000E+000
  2.200000000000000E-007    0.000000000000000E+000
  2.400000000000000E-007    0.000000000000000E+000
  2.600000000000001E-007    0.000000000000000E+000
  2.800000000000001E-007    0.000000000000000E+000
  3.000000000000001E-007    0.000000000000000E+000
  3.200000000000001E-007    0.000000000000000E+000
  3.400000000000001E-007    0.000000000000000E+000
  3.600000000000002E-007    0.000000000000000E+000
  3.800000000000002E-007    0.000000000000000E+000
  4.000000000000000E-007    0.000000000000000E+000
  4.200000000000000E-007    0.000000000000000E+000
  4.400000000000000E-007    0.000000000000000E+000
  4.600000000000000E-007    0.000000000000000E+000
  4.800000000000001E-007    0.000000000000000E+000
  5.000000000000001E-007    0.000000000000000E+000
  5.200000000000001E-007    0.000000000000000E+000
  5.400000000000001E-007    0.000000000000000E+000
  5.600000000000001E-007    0.000000000000000E+000
  5.800000000000002E-007    0.000000000000000E+000
  6.000000000000002E-007    0.000000000000000E+000
  6.200000000000000E-007    0.000000000000000E+000
  6.400000000000000E-007    0.000000000000000E+000
  6.600000000000000E-007    0.000000000000000E+000
  6.800000000000001E-007    0.000000000000000E+000
  7.000000000000001E-007    0.000000000000000E+000
  7.200000000000003E-007    0.000000000000000E+000
  7.400000000000001E-007    0.000000000000000E+000
  7.599999999999999E-007    0.000000000000000E+000
  7.800000000000002E-007    0.000000000000000E+000
  8.000000000000000E-007    0.000000000000000E+000
  8.200000000000002E-007    0.000000000000000E+000
  8.400000000000000E-007    0.000000000000000E+000
  8.600000000000002E-007    0.000000000000000E+000
  8.800000000000000E-007    0.000000000000000E+000
  9.000000000000003E-007    0.000000000000000E+000
  9.200000000000001E-007    0.000000000000000E+000
  9.399999999999999E-007    0.000000000000000E+000
  9.600000000000001E-007    0.000000000000000E+000
  9.799999999999999E-007    0.000000000000000E+000
  1.000000000000000E-006    0.000000000000000E+000
  1.020000000000000E-006    0.000000000000000E+000
  1.040000000000000E-006    0.000000000000000E+000
  1.060000000000000E-006    0.000000000000000E+000
  1.080000000000000E-006    0.000000000000000E+000
  1.100000000000000E-006    0.000000000000000E+000
  1.120000000000000E-006    0.000000000000000E+000
  1.140000000000000E-006    0.000000000000000E+000
  1.160000000000000E-006   -2.548230885831978E-039
  1.180000000000000E-006    2.318715315576644E-038
  1.200000000000000E-006   -7.064546686926662E-038
  1.220000000000000E-006    1.726984503476483E-038
  1.240000000000000E-006    1.755995041835454E-037
  1.260000000000000E-006   -4.461884104075247E-037
  1.280000000000000E-006    1.200572819489171E-036
  1.300000000000000E-006    2.030841136484949E-037
  1.320000000000000E-006   -3.187330768176308E-036
  1.340000000000000E-006    5.882975498857396E-036
  1.360000000000000E-006   -3.223933140542869E-036
  1.380000000000000E-006   -1.484981436173744E-035
  1.400000000000000E-006    2.913758669816371E-035
  1.420000000000000E-006   -1.120120780458817E-035
  1.440000000000000E-006   -4.826252153010410E-035
  1.460000000000000E-006    1.123580471197146E-034
  1.480000000000000E-006   -6.112691941649884E-035
  1.500000000000000E-006   -1.718240693323724E-034
  1.520000000000000E-006    4.213141783515231E-034
  1.540000000000000E-006   -2.665383809668794E-034
  1.560000000000000E-006   -5.945738163652353E-034
  1.580000000000000E-006    1.579186747138410E-033
  1.600000000000000E-006   -1.006749122572326E-033
  1.620000000000000E-006   -2.126364851485880E-033
  1.640000000000000E-006    5.481782223489176E-033
  1.660000000000000E-006   -3.675398870355405E-033
  1.680000000000000E-006   -6.942981315355650E-033
  1.700000000000000E-006    1.964304303279450E-032
  1.720000000000000E-006   -1.282920653768235E-032
  1.740000000000000E-006   -2.636375179722674E-032
  1.760000000000000E-006    6.295778539686705E-032
  1.780000000000000E-006   -3.592079661567744E-032
  1.800000000000000E-006   -7.216887660814359E-032
  1.820000000000000E-006    2.023129480254354E-031
  1.840000000000000E-006   -1.569684184454158E-031
  1.860000000000000E-006   -2.777284729248508E-031
  1.880000000000000E-006    7.093190336352393E-031
  1.900000000000000E-006   -2.717385177939323E-031
  1.920000000000000E-006   -8.595560016023434E-031
  1.940000000000000E-006    1.637697964243902E-030
  1.960000000000000E-006   -1.298741045691196E-030
  1.980000000000000E-006   -1.964235429279565E-030
  2.000000000000000E-006    6.658573062857215E-030
  2.020000000000000E-006   -2.892958324013179E-030
  2.040000000000000E-006   -9.287571778622637E-030
  2.060000000000000E-006    1.286207932549290E-029
  2.080000000000000E-006   -6.290396460595382E-030
  2.100000000000000E-006   -1.143793076348684E-029
  2.120000000000000E-006    4.867767152623377E-029
  2.140000000000000E-006   -2.949872075310363E-029
  2.160000000000000E-006   -7.934189901990265E-029
  2.180000000000000E-006    9.383584641813119E-029
  2.200000000000000E-006   -5.561082806066805E-030
  2.220000000000000E-006   -4.581565512301622E-029
  2.240000000000000E-006    2.778580869638071E-028
  2.260000000000000E-006   -2.838958479139638E-028
  2.280000000000000E-006   -5.470682065560577E-028
  2.300000000000000E-006    6.738872078800868E-028
  2.320000000000000E-006    2.357999849207756E-028
  2.340000000000000E-006   -1.380993875575806E-028
  2.360000000000000E-006    1.189882494381403E-027
  2.380000000000000E-006   -2.121521506295322E-027
  2.400000000000000E-006   -3.049806013160922E-027
  2.420000000000000E-006    3.848752733697743E-027
  2.440000000000000E-006    2.269680079354895E-027
  2.460000000000000E-006    1.240908896893949E-027
  2.480000000000000E-006    5.666857784610077E-027
  2.500000000000000E-006   -1.441452321511361E-026
  2.520000000000000E-006   -2.002115503027151E-026
  2.540000000000000E-006    1.460591992648181E-026
  2.560000000000000E-006    2.116056410177854E-026
  2.580000000000000E-006    3.355179107816161E-026
  2.600000000000000E-006    3.290571944833689E-026
  2.620000000000000E-006   -1.020613471613521E-025
  2.640000000000001E-006   -1.489096822278219E-025
  2.660000000000000E-006    1.678462723100967E-026
  2.680000000000000E-006    1.586093796230277E-025
  2.700000000000000E-006    3.613555835936159E-025
  2.720000000000000E-006    2.854779922668697E-025
  2.740000000000000E-006   -5.576050511344581E-025
  2.760000000000000E-006   -1.085237018323109E-024
  2.780000000000000E-006   -6.113534186420154E-025
  2.800000000000000E-006    6.323861612426599E-025
  2.820000000000001E-006    2.901444329614586E-024
  2.840000000000000E-006    3.180210969838829E-024
  2.860000000000000E-006   -1.451370424437048E-024
  2.880000000000000E-006   -7.003354776070078E-024
  2.900000000000000E-006   -8.996144914851618E-024
  2.920000000000000E-006   -2.135228572323758E-024
  2.940000000000000E-006    1.652986154208588E-023
  2.960000000000000E-006    2.839438448386734E-023
  2.980000000000000E-006    1.273578242500660E-023
  3.000000000000000E-006   -2.754618646095606E-023
  3.020000000000000E-006   -7.342703515327076E-023
  3.040000000000000E-006   -6.857699504460671E-023
  3.060000000000000E-006    3.535398297496835E-023
  3.080000000000000E-006    1.734228741603168E-022
  3.100000000000000E-006    2.188353968921689E-022
  3.120000000000000E-006    5.378146440499929E-023
  3.140000000000000E-006   -3.408270296204211E-022
  3.160000000000000E-006   -6.484231754245048E-022
  3.180000000000000E-006   -4.164047666842436E-022
  3.200000000000000E-006    4.413326634071510E-022
  3.220000000000000E-006    1.516055400148735E-021
  3.240000000000000E-006    1.752458450230947E-021
  3.260000000000001E-006    6.854828273373851E-023
  3.280000000000000E-006   -2.953756351962955E-021
  3.300000000000000E-006   -4.979897862628046E-021
  3.320000000000000E-006   -3.220264458332583E-021
  3.340000000000000E-006    3.656228814001648E-021
  3.360000000000000E-006    1.181568635127229E-020
  3.380000000000000E-006    1.287874047470884E-020
  3.400000000000000E-006    1.199190823321743E-021
  3.420000000000000E-006   -2.029363010658401E-020
  3.440000000000001E-006   -3.623963462368986E-020
  3.460000000000000E-006   -2.436435791464970E-020
  3.480000000000000E-006    2.092640889236804E-020
  3.500000000000000E-006    7.356058150303427E-020
  3.520000000000000E-006    8.617042827339347E-020
  3.540000000000000E-006    1.901533358483234E-020
  3.560000000000000E-006   -1.074217999793999E-019
  3.580000000000000E-006   -1.934752937291080E-019
  3.600000000000000E-006   -1.354254639108316E-019
  3.620000000000000E-006    7.537875412891317E-020
  3.640000000000000E-006    2.967886560224362E-019
  3.660000000000000E-006    2.946612508995606E-019
  3.680000000000000E-006   -3.654334598553121E-021
  3.700000000000001E-006   -3.170909519587859E-019
  3.720000000000000E-006   -2.040459834121307E-019
  3.740000000000000E-006    4.399464763048639E-019
  3.760000000000000E-006    8.731189669698144E-019
  3.780000000000000E-006   -2.693659877943365E-019
  3.800000000000000E-006   -3.346906508311507E-018
  3.820000000000001E-006   -5.833074412844473E-018
  3.840000000000001E-006   -2.570958357723432E-018
  3.860000000000000E-006    1.007385085684449E-017
  3.880000000000000E-006    2.683192375645131E-017
  3.900000000000000E-006    2.947368775234013E-017
  3.920000000000000E-006   -4.145571222783127E-018
  3.940000000000000E-006   -7.586693328588138E-017
  3.959999999999999E-006   -1.411407614084359E-016
  3.980000000000001E-006   -1.107541072377779E-016
  4.000000000000001E-006    8.987798398034378E-017
  4.020000000000000E-006    4.147107310356453E-016
  4.040000000000000E-006    6.212449944254994E-016
  4.060000000000000E-006    3.413268913308479E-016
  4.080000000000000E-006   -6.303428933152013E-016
  4.100000000000000E-006   -1.934768561820462E-015
  4.120000000000000E-006   -2.473044397504575E-015
  4.139999999999999E-006   -8.676819346421875E-016
  4.160000000000001E-006    3.321236989464375E-015
  4.180000000000001E-006    8.198223754369441E-015
  4.200000000000000E-006    9.272581005812061E-015
  4.220000000000000E-006    1.684139638932733E-015
  4.240000000000000E-006   -1.509032543513913E-014
  4.260000000000000E-006   -3.259590653212519E-014
  4.280000000000000E-006   -3.363371697343223E-014
  4.299999999999999E-006   -1.590074164855125E-015
  4.320000000000001E-006    6.231807736944694E-014
  4.340000000000001E-006    1.239708490657302E-013
  4.360000000000001E-006    1.202758962118663E-013
  4.380000000000000E-006   -4.924511449085003E-015
  4.400000000000000E-006   -2.399095575638953E-013
  4.420000000000000E-006   -4.562458902554205E-013
  4.440000000000000E-006   -4.293946631625233E-013
  4.460000000000000E-006    3.115670475574816E-014
  4.479999999999999E-006    8.718643590342784E-013
  4.500000000000001E-006    1.634971378429071E-012
  4.520000000000001E-006    1.539795444164295E-012
  4.540000000000001E-006   -6.775025377772712E-014
  4.560000000000000E-006   -3.005128824902182E-012
  4.580000000000000E-006   -5.717329288947858E-012
  4.600000000000000E-006   -5.545619655005450E-012
  4.620000000000000E-006   -2.146793294596434E-013
  4.640000000000000E-006    9.808687564773907E-012
  4.659999999999999E-006    1.948662250696520E-011
  4.680000000000001E-006    1.995615931333050E-011
  4.700000000000001E-006    3.240043030055678E-012
  4.720000000000001E-006   -3.006525294693122E-011
  4.740000000000000E-006   -6.446849179012313E-011
  4.760000000000000E-006   -7.115242100916861E-011
  4.780000000000000E-006   -2.219442800664460E-011
  4.800000000000000E-006    8.494783613117052E-011
  4.820000000000000E-006    2.055689511617216E-010
  4.839999999999999E-006    2.488369039775568E-010
  4.860000000000001E-006    1.182804192626453E-010
  4.880000000000001E-006   -2.124948137784762E-010
  4.900000000000001E-006   -6.250737955158585E-010
  4.920000000000000E-006   -8.443598138163673E-010
  4.940000000000000E-006   -5.452445758730896E-010
  4.960000000000000E-006    4.220783901906071E-010
  4.980000000000000E-006    1.783074394638477E-009
  5.000000000000000E-006    2.747316616814298E-009
  5.019999999999999E-006    2.258849720936461E-009
  5.040000000000001E-006   -3.664421332559955E-010
  5.060000000000001E-006   -4.641701239517187E-009
  5.080000000000000E-006   -8.453830337991103E-009
  5.100000000000000E-006   -8.539416352940826E-009
  5.120000000000000E-006   -2.167606072216684E-009
  5.140000000000000E-006    1.042222232005950E-008
  5.160000000000000E-006    2.414982283473103E-008
  5.180000000000000E-006    2.956574881137583E-008
  5.199999999999999E-006    1.687452223511301E-008
  5.220000000000001E-006   -1.710254990341009E-008
  5.240000000000001E-006   -6.217559994731460E-008
  5.260000000000000E-006   -9.326592037414214E-008
  5.280000000000000E-006   -7.857873833090251E-008
  5.300000000000000E-006    2.157300566954979E-009
  5.320000000000000E-006    1.358848552889946E-007
  5.340000000000000E-006    2.638764058074887E-007
  5.360000000000000E-006    2.933182567811123E-007
  5.380000000000001E-006    1.396101761203434E-007
  5.400000000000001E-006   -2.106965417991086E-007
  5.420000000000001E-006   -6.463822735857637E-007
  5.440000000000000E-006   -9.289683109310702E-007
  5.460000000000000E-006   -7.730817459549708E-007
  5.480000000000000E-006   -5.815412529540450E-009
  5.500000000000000E-006    1.252527915256649E-006
  5.520000000000000E-006    2.490418577164597E-006
  5.539999999999999E-006    2.899693801716727E-006
  5.560000000000001E-006    1.712359623481380E-006
  5.580000000000001E-006   -1.294486659140612E-006
  5.600000000000001E-006   -5.343421550775848E-006
  5.620000000000000E-006   -8.556404342184393E-006
  5.640000000000000E-006   -8.464150222895466E-006
  5.660000000000000E-006   -3.152854643250500E-006
  5.680000000000000E-006    7.282510286057295E-006
  5.700000000000000E-006    1.965880273311257E-005
  5.719999999999999E-006    2.781838281472404E-005
  5.740000000000001E-006    2.450549011494859E-005
  5.760000000000001E-006    4.888725812567679E-006
  5.780000000000001E-006   -2.934790774903196E-005
  5.800000000000000E-006   -6.728482311408927E-005
  5.820000000000000E-006   -8.962242956582990E-005
  5.840000000000000E-006   -7.457079261679732E-005
  5.860000000000000E-006   -8.358627472864226E-006
  5.880000000000000E-006    1.026756198442962E-004
  5.899999999999999E-006    2.239066772888224E-004
  5.920000000000001E-006    2.946440288458933E-004
  5.940000000000001E-006    2.455067204390468E-004
  5.960000000000001E-006    3.058521913589353E-005
  5.980000000000000E-006   -3.338484519222903E-004
  6.000000000000000E-006   -7.406013603148016E-004
  6.020000000000000E-006   -9.940120897449318E-004
  6.040000000000000E-006   -8.612714723349839E-004
  6.060000000000000E-006   -1.751848460570331E-004
  6.079999999999999E-006    1.034999171397245E-003
  6.100000000000001E-006    2.437864534686498E-003
  6.120000000000001E-006    3.392086091582656E-003
  6.140000000000001E-006    3.101929877255208E-003
  6.160000000000000E-006    9.528781735626537E-004
  6.180000000000000E-006   -3.043915466664840E-003
  6.200000000000000E-006   -7.873654962207113E-003
  6.220000000000000E-006   -1.145316450802054E-002
  6.240000000000000E-006   -1.110503867152805E-002
  6.260000000000001E-006   -4.637777484781811E-003
  6.280000000000001E-006    8.191681305195089E-003
  6.300000000000001E-006    2.439675456688695E-002
  6.320000000000000E-006    3.745504979421499E-002
  6.340000000000000E-006    3.870202791609495E-002
  6.360000000000000E-006    2.064855643053298E-002
  6.380000000000000E-006   -1.845370438028079E-002
  6.400000000000000E-006   -7.050680797388725E-002
  6.420000000000000E-006   -0.116309181759798     
  6.439999999999999E-006   -0.129317579528603     
  6.459999999999999E-006   -8.513488872163694E-002
  6.480000000000001E-006    2.514517137144298E-002
  6.500000000000000E-006    0.182506729105127     
  6.520000000000000E-006    0.335155160121343     
  6.540000000000000E-006    0.407324445093579     
  6.560000000000000E-006    0.323962063459743     
  6.580000000000000E-006    4.675859013306061E-002
  6.599999999999999E-006   -0.390546915508250     
  6.619999999999999E-006   -0.864618676511880     
  6.639999999999999E-006    -1.17864827426540     
  6.660000000000001E-006    -1.11895380532815     
  6.680000000000000E-006   -0.542902912437826     
  6.700000000000000E-006    0.528892242389489     
  6.720000000000000E-006     1.85534504470817     
  6.740000000000000E-006     2.99068794748418     
  6.760000000000000E-006     3.39268237571276     
  6.779999999999999E-006     2.60920852961537     
  6.799999999999999E-006    0.491191284029775     
  6.819999999999999E-006    -2.64718366759511     
  6.840000000000001E-006    -6.00110080220705     
  6.860000000000000E-006    -8.42811646139137     
  6.880000000000000E-006    -8.76847862000478     
  6.900000000000000E-006    -6.25006104425067     
  6.920000000000000E-006   -0.844770586783819     
  6.940000000000000E-006     6.56307569102638     
  6.959999999999999E-006     14.2864797314299     
  6.979999999999999E-006     20.2198838795523     
  6.999999999999999E-006     22.3892956549275     
  7.020000000000001E-006     19.4880097967348     
  7.040000000000000E-006     11.2136524000192     
  7.060000000000000E-006    -1.70267802158098     
  7.080000000000000E-006    -17.7580666143290     
  7.100000000000000E-006    -35.0889034063928     
  7.120000000000000E-006    -51.8294518074242     
  7.139999999999999E-006    -66.2558966794605     
  7.159999999999999E-006    -76.6854758147722     
  7.179999999999999E-006    -81.2599767628995     
  7.200000000000001E-006    -77.8429899583211     
  7.220000000000000E-006    -64.2223601247765     
  7.240000000000000E-006    -38.6140588348275     
  7.260000000000000E-006   -0.177506229819542     
  7.280000000000000E-006     50.9854197412252     
  7.300000000000000E-006     114.928114649250     
  7.319999999999999E-006     194.402778367467     
  7.339999999999999E-006     298.726403631770     
  7.359999999999999E-006     448.291076257336     
  7.380000000000000E-006     678.693134310165     
  7.400000000000000E-006     1043.47446611159     
  7.420000000000000E-006     1615.00135294992     
  7.440000000000000E-006     2483.84155918129     
  7.460000000000000E-006     3757.78242721113     
  7.480000000000000E-006     5561.92590463692     
  7.499999999999999E-006     8040.91538398481     
  7.519999999999999E-006     11362.8547594569     
  7.540000000000001E-006     15722.8885821235     
  7.560000000000000E-006     21342.7966647396     
  7.580000000000000E-006     28462.1221053364     
  7.600000000000000E-006     37317.4579239318     
  7.620000000000000E-006     48107.9570868617     
  7.640000000000000E-006     60948.8081925385     
  7.660000000000000E-006     75816.2528842199     
  7.679999999999999E-006     92490.4048941039     
  7.699999999999999E-006     110502.532211625     
  7.720000000000001E-006     129091.453808652     
  7.740000000000000E-006     147173.952505623     
  7.760000000000000E-006     163331.826348407     
  7.780000000000000E-006     175819.316299120     
  7.800000000000000E-006     182595.762586741     
  7.820000000000000E-006     181390.890303032     
  7.839999999999999E-006     169811.065795477     
  7.859999999999999E-006     145492.756796840     
  7.879999999999999E-006     106306.379040702     
  7.900000000000001E-006     50603.5682426674     
  7.920000000000000E-006    -22508.3566233120     
  7.940000000000000E-006    -112890.147513448     
  7.960000000000000E-006    -219124.457963256     
  7.980000000000000E-006    -338333.922094239     
  8.000000000000000E-006    -466094.873735638     
  8.019999999999999E-006    -596470.457087722     
  8.039999999999999E-006    -722181.177307640     
  8.059999999999999E-006    -834918.688673426     
  8.080000000000001E-006    -925797.028366400     
  8.100000000000000E-006    -985927.635259571     
  8.120000000000000E-006    -1007083.89089694     
  8.140000000000000E-006    -982410.257845644     
  8.160000000000000E-006    -907122.525609161     
  8.180000000000000E-006    -779129.797401711     
  8.199999999999999E-006    -599503.902819613     
  8.219999999999999E-006    -372738.214801783     
  8.239999999999999E-006    -106750.091448351     
  8.260000000000001E-006     187390.307177605     
  8.280000000000000E-006     495998.691446584     
  8.300000000000000E-006     803544.515029588     
  8.320000000000000E-006     1093594.96864996     
  8.340000000000000E-006     1349870.23545458     
  8.360000000000000E-006     1557338.58715047     
  8.379999999999999E-006     1703281.39907591     
  8.399999999999999E-006     1778239.78210361     
  8.419999999999999E-006     1776755.43458687     
  8.440000000000001E-006     1697839.99655653     
  8.460000000000000E-006     1545115.84848461     
  8.480000000000000E-006     1326590.18074901     
  8.500000000000000E-006     1054077.04852224     
  8.520000000000000E-006     742328.845021452     
  8.540000000000000E-006     407966.646479469     
  8.559999999999999E-006     68306.5090988212     
  8.579999999999999E-006    -259799.433176643     
  8.600000000000001E-006    -560999.243594121     
  8.620000000000000E-006    -822295.877756470     
  8.640000000000000E-006    -1033690.73174929     
  8.660000000000000E-006    -1188581.31684644     
  8.680000000000000E-006    -1283910.15178255     
  8.700000000000000E-006    -1320077.38347766     
  8.720000000000000E-006    -1300645.17408721     
  8.739999999999999E-006    -1231847.37456618     
  8.759999999999999E-006    -1121948.05488630     
  8.780000000000001E-006    -980517.486006220     
  8.800000000000000E-006    -817695.900470187     
  8.820000000000000E-006    -643500.237072060     
  8.840000000000000E-006    -467226.637091811     
  8.860000000000000E-006    -297005.477783023     
  8.880000000000000E-006    -139528.888367289     
  8.899999999999999E-006     88.5930099045218     
  8.919999999999999E-006     118353.951918201     
  8.939999999999999E-006     213350.986816388     
  8.960000000000001E-006     284624.109922345     
  8.980000000000000E-006     333021.601448052     
  9.000000000000000E-006     360492.244574285     
  9.020000000000000E-006     369818.329612005     
  9.040000000000000E-006     364283.075640706     
  9.060000000000000E-006     347316.885555093     
  9.079999999999999E-006     322177.944426139     
  9.099999999999999E-006     291696.312320407     
  9.119999999999999E-006     258121.232975294     
  9.140000000000001E-006     223128.037005716     
  9.160000000000000E-006     187956.120043517     
  9.180000000000000E-006     153579.787080117     
  9.200000000000000E-006     120832.215238810     
  9.220000000000000E-006     90453.4606874941     
  9.240000000000000E-006     63076.9767850713     
  9.259999999999999E-006     39188.5263824334     
  9.279999999999999E-006     19095.8520563345     
  9.299999999999999E-006     2965.93699193721     
  9.320000000000001E-006    -9079.62860777023     
  9.340000000000000E-006    -16918.9036990901     
  9.360000000000000E-006    -20500.5127943493     
  9.380000000000000E-006    -20009.8086782566     
  9.400000000000000E-006    -16072.8132459231     
  9.420000000000000E-006    -9892.61960407787     
  9.439999999999999E-006    -3203.41278150689     
  9.459999999999999E-006     2007.24884522245     
  9.479999999999999E-006     3961.35877174004     
  9.500000000000001E-006     1572.59755061992     
  9.520000000000000E-006    -5235.20611516702     
  9.540000000000000E-006    -15451.7867710970     
  9.560000000000000E-006    -27167.6349869964     
  9.580000000000000E-006    -37978.7011402655     
  9.600000000000000E-006    -45458.1499463701     
  9.619999999999999E-006    -47579.8939084823     
  9.639999999999999E-006    -43067.3077727460     
  9.660000000000001E-006    -31650.6177144493     
  9.680000000000000E-006    -14220.3524232801     
  9.700000000000000E-006     7152.23508071437     
  9.720000000000000E-006     29372.9117169104     
  9.740000000000000E-006     48676.5901357202     
  9.760000000000000E-006     61199.2200427830     
  9.780000000000000E-006     63741.1624327765     
  9.799999999999999E-006     54532.5114735022     
  9.819999999999999E-006     33784.3937747933     
  9.840000000000001E-006     3892.24062016650     
  9.860000000000000E-006    -30799.2747524516     
  9.880000000000000E-006    -64647.4253198018     
  9.900000000000000E-006    -91626.4024960224     
  9.920000000000000E-006    -106328.879999178     
  9.940000000000000E-006    -104891.514328089     
  9.960000000000000E-006    -85739.1033964378     
  9.979999999999999E-006    -50089.0987459005     
  9.999999999999999E-006    -2106.15672806824     
  1.002000000000000E-005     51414.3138695912     
  1.004000000000000E-005     101892.133021568     
  1.006000000000000E-005     140325.596726952     
  1.008000000000000E-005     158961.332665456     
  1.010000000000000E-005     152856.653843225     
  1.012000000000000E-005     120958.720534852     
  1.014000000000000E-005     66480.1091941659     
  1.016000000000000E-005    -3493.39612236092     
  1.018000000000000E-005    -79028.3369264549     
  1.020000000000000E-005    -148745.113104447     
  1.022000000000000E-005    -201363.280195904     
  1.024000000000000E-005    -227264.686337448     
  1.026000000000000E-005    -220028.326359894     
  1.028000000000000E-005    -177783.629427113     
  1.030000000000000E-005    -104051.604088113     
  1.032000000000000E-005    -7768.19565441090     
  1.034000000000000E-005     97670.2371720095     
  1.036000000000000E-005     196336.473968178     
  1.038000000000000E-005     272359.415520426     
  1.040000000000000E-005     312562.590987815     
  1.042000000000000E-005     308599.055409577     
  1.044000000000000E-005     258298.311855458     
  1.046000000000000E-005     166162.307357000     
  1.048000000000000E-005     43021.1029423680     
  1.050000000000000E-005    -95137.4364080427     
  1.052000000000000E-005    -229085.967123168     
  1.054000000000000E-005    -338877.252843173     