 -1.200000000000000E-006    0.000000000000000E+000
 -1.180000000000000E-006    0.000000000000000E+000
 -1.160000000000000E-006    0.000000000000000E+000
 -1.140000000000000E-006    0.000000000000000E+000
 -1.120000000000000E-006    0.000000000000000E+000
 -1.100000000000000E-006    0.000000000000000E+000
 -1.080000000000000E-006    0.000000000000000E+000
 -1.060000000000000E-006    0.000000000000000E+000
 -1.040000000000000E-006    0.000000000000000E+000
 -1.020000000000000E-006    0.000000000000000E+000
 -1.000000000000000E-006    0.000000000000000E+000
 -9.799999999999999E-007    0.000000000000000E+000
 -9.599999999999999E-007    0.000000000000000E+000
 -9.399999999999999E-007    0.000000000000000E+000
 -9.199999999999999E-007    0.000000000000000E+000
 -9.000000000000000E-007    0.000000000000000E+000
 -8.799999999999999E-007    0.000000000000000E+000
 -8.599999999999999E-007    0.000000000000000E+000
 -8.400000000000000E-007    0.000000000000000E+000
 -8.200000000000000E-007    0.000000000000000E+000
 -8.000000000000000E-007    0.000000000000000E+000
 -7.799999999999999E-007    0.000000000000000E+000
 -7.599999999999999E-007    0.000000000000000E+000
 -7.399999999999999E-007    0.000000000000000E+000
 -7.199999999999999E-007    0.000000000000000E+000
 -7.000000000000000E-007    0.000000000000000E+000
 -6.799999999999999E-007    0.000000000000000E+000
 -6.599999999999999E-007    0.000000000000000E+000
 -6.399999999999999E-007    0.000000000000000E+000
 -6.199999999999999E-007    0.000000000000000E+000
 -6.000000000000000E-007    0.000000000000000E+000
 -5.800000000000000E-007    0.000000000000000E+000
 -5.599999999999999E-007    0.000000000000000E+000
 -5.399999999999999E-007    0.000000000000000E+000
 -5.199999999999999E-007    0.000000000000000E+000
 -5.000000000000000E-007    0.000000000000000E+000
 -4.800000000000000E-007    0.000000000000000E+000
 -4.599999999999999E-007    0.000000000000000E+000
 -4.399999999999999E-007    0.000000000000000E+000
 -4.199999999999999E-007    0.000000000000000E+000
 -4.000000000000000E-007    0.000000000000000E+000
 -3.800000000000000E-007    0.000000000000000E+000
 -3.599999999999999E-007    0.000000000000000E+000
 -3.399999999999999E-007    0.000000000000000E+000
 -3.199999999999999E-007    0.000000000000000E+000
 -2.999999999999999E-007    0.000000000000000E+000
 -2.800000000000000E-007    0.000000000000000E+000
 -2.599999999999999E-007    0.000000000000000E+000
 -2.399999999999998E-007    0.000000000000000E+000
 -2.200000000000000E-007    0.000000000000000E+000
 -2.000000000000000E-007    0.000000000000000E+000
 -1.800000000000000E-007    0.000000000000000E+000
 -1.600000000000000E-007    0.000000000000000E+000
 -1.399999999999999E-007    0.000000000000000E+000
 -1.199999999999999E-007    0.000000000000000E+000
 -9.999999999999989E-008    0.000000000000000E+000
 -7.999999999999987E-008    0.000000000000000E+000
 -5.999999999999985E-008    0.000000000000000E+000
 -3.999999999999983E-008    0.000000000000000E+000
 -2.000000000000002E-008    0.000000000000000E+000
  0.000000000000000E+000    0.000000000000000E+000
  2.000000000000002E-008    0.000000000000000E+000
  4.000000000000004E-008    0.000000000000000E+000
  6.000000000000006E-008    0.000000000000000E+000
  8.000000000000008E-008    0.000000000000000E+000
  1.000000000000001E-007    0.000000000000000E+000
  1.200000000000001E-007    0.000000000000000E+000
  1.400000000000001E-007    0.000000000000000E+000
  1.600000000000002E-007    0.000000000000000E+000
  1.800000000000002E-007    0.000000000000000E+000
  2.000000000000000E-007    0.000000000000000E+000
  2.200000000000000E-007    0.000000000000000E+000
  2.400000000000000E-007    0.000000000000000E+000
  2.600000000000001E-007    0.000000000000000E+000
  2.800000000000001E-007    0.000000000000000E+000
  3.000000000000001E-007    0.000000000000000E+000
  3.200000000000001E-007    0.000000000000000E+000
  3.400000000000001E-007    0.000000000000000E+000
  3.600000000000002E-007    0.000000000000000E+000
  3.800000000000002E-007    0.000000000000000E+000
  4.000000000000000E-007    0.000000000000000E+000
  4.200000000000000E-007    0.000000000000000E+000
  4.400000000000000E-007    0.000000000000000E+000
  4.600000000000000E-007    0.000000000000000E+000
  4.800000000000001E-007    0.000000000000000E+000
  5.000000000000001E-007    0.000000000000000E+000
  5.200000000000001E-007    0.000000000000000E+000
  5.400000000000001E-007    0.000000000000000E+000
  5.600000000000001E-007    0.000000000000000E+000
  5.800000000000002E-007    0.000000000000000E+000
  6.000000000000002E-007    0.000000000000000E+000
  6.200000000000000E-007    0.000000000000000E+000
  6.400000000000000E-007    0.000000000000000E+000
  6.600000000000000E-007    0.000000000000000E+000
  6.800000000000001E-007    0.000000000000000E+000
  7.000000000000001E-007    0.000000000000000E+000
  7.200000000000003E-007    0.000000000000000E+000
  7.400000000000001E-007    0.000000000000000E+000
  7.599999999999999E-007    0.000000000000000E+000
  7.800000000000002E-007    0.000000000000000E+000
  8.000000000000000E-007    0.000000000000000E+000
  8.200000000000002E-007    0.000000000000000E+000
  8.400000000000000E-007    0.000000000000000E+000
  8.600000000000002E-007    0.000000000000000E+000
  8.800000000000000E-007    0.000000000000000E+000
  9.000000000000003E-007    0.000000000000000E+000
  9.200000000000001E-007    0.000000000000000E+000
  9.399999999999999E-007    0.000000000000000E+000
  9.600000000000001E-007    0.000000000000000E+000
  9.799999999999999E-007    0.000000000000000E+000
  1.000000000000000E-006    0.000000000000000E+000
  1.020000000000000E-006    0.000000000000000E+000
  1.040000000000000E-006    0.000000000000000E+000
  1.060000000000000E-006    0.000000000000000E+000
  1.080000000000000E-006    0.000000000000000E+000
  1.100000000000000E-006    0.000000000000000E+000
  1.120000000000000E-006    0.000000000000000E+000
  1.140000000000000E-006    0.000000000000000E+000
  1.160000000000000E-006    0.000000000000000E+000
  1.180000000000000E-006    0.000000000000000E+000
  1.200000000000000E-006    0.000000000000000E+000
  1.220000000000000E-006    0.000000000000000E+000
  1.240000000000000E-006    0.000000000000000E+000
  1.260000000000000E-006    0.000000000000000E+000
  1.280000000000000E-006    0.000000000000000E+000
  1.300000000000000E-006    0.000000000000000E+000
  1.320000000000000E-006    0.000000000000000E+000
  1.340000000000000E-006    0.000000000000000E+000
  1.360000000000000E-006    0.000000000000000E+000
  1.380000000000000E-006    0.000000000000000E+000
  1.400000000000000E-006    0.000000000000000E+000
  1.420000000000000E-006    0.000000000000000E+000
  1.440000000000000E-006    0.000000000000000E+000
  1.460000000000000E-006    0.000000000000000E+000
  1.480000000000000E-006    0.000000000000000E+000
  1.500000000000000E-006    0.000000000000000E+000
  1.520000000000000E-006    0.000000000000000E+000
  1.540000000000000E-006    0.000000000000000E+000
  1.560000000000000E-006    0.000000000000000E+000
  1.580000000000000E-006    0.000000000000000E+000
  1.600000000000000E-006    0.000000000000000E+000
  1.620000000000000E-006    0.000000000000000E+000
  1.640000000000000E-006    0.000000000000000E+000
  1.660000000000000E-006    0.000000000000000E+000
  1.680000000000000E-006    0.000000000000000E+000
  1.700000000000000E-006    0.000000000000000E+000
  1.720000000000000E-006    0.000000000000000E+000
  1.740000000000000E-006    0.000000000000000E+000
  1.760000000000000E-006    0.000000000000000E+000
  1.780000000000000E-006    0.000000000000000E+000
  1.800000000000000E-006    0.000000000000000E+000
  1.820000000000000E-006    0.000000000000000E+000
  1.840000000000000E-006    0.000000000000000E+000
  1.860000000000000E-006    0.000000000000000E+000
  1.880000000000000E-006    0.000000000000000E+000
  1.900000000000000E-006    0.000000000000000E+000
  1.920000000000000E-006    0.000000000000000E+000
  1.940000000000000E-006    0.000000000000000E+000
  1.960000000000000E-006    0.000000000000000E+000
  1.980000000000000E-006    0.000000000000000E+000
  2.000000000000000E-006    0.000000000000000E+000
  2.020000000000000E-006    0.000000000000000E+000
  2.040000000000000E-006    0.000000000000000E+000
  2.060000000000000E-006    0.000000000000000E+000
  2.080000000000000E-006    0.000000000000000E+000
  2.100000000000000E-006    0.000000000000000E+000
  2.120000000000000E-006    0.000000000000000E+000
  2.140000000000000E-006    0.000000000000000E+000
  2.160000000000000E-006    0.000000000000000E+000
  2.180000000000000E-006    0.000000000000000E+000
  2.200000000000000E-006    0.000000000000000E+000
  2.220000000000000E-006    0.000000000000000E+000
  2.240000000000000E-006    0.000000000000000E+000
  2.260000000000000E-006    0.000000000000000E+000
  2.280000000000000E-006    0.000000000000000E+000
  2.300000000000000E-006    0.000000000000000E+000
  2.320000000000000E-006    0.000000000000000E+000
  2.340000000000000E-006    0.000000000000000E+000
  2.360000000000000E-006    0.000000000000000E+000
  2.380000000000000E-006    0.000000000000000E+000
  2.400000000000000E-006    0.000000000000000E+000
  2.420000000000000E-006    0.000000000000000E+000
  2.440000000000000E-006    0.000000000000000E+000
  2.460000000000000E-006    0.000000000000000E+000
  2.480000000000000E-006    0.000000000000000E+000
  2.500000000000000E-006    0.000000000000000E+000
  2.520000000000000E-006    0.000000000000000E+000
  2.540000000000000E-006    0.000000000000000E+000
  2.560000000000000E-006    0.000000000000000E+000
  2.580000000000000E-006    0.000000000000000E+000
  2.600000000000000E-006    0.000000000000000E+000
  2.620000000000000E-006    0.000000000000000E+000
  2.640000000000001E-006    0.000000000000000E+000
  2.660000000000000E-006    0.000000000000000E+000
  2.680000000000000E-006    0.000000000000000E+000
  2.700000000000000E-006    0.000000000000000E+000
  2.720000000000000E-006    0.000000000000000E+000
  2.740000000000000E-006    0.000000000000000E+000
  2.760000000000000E-006    0.000000000000000E+000
  2.780000000000000E-006    0.000000000000000E+000
  2.800000000000000E-006    0.000000000000000E+000
  2.820000000000001E-006    0.000000000000000E+000
  2.840000000000000E-006    0.000000000000000E+000
  2.860000000000000E-006    0.000000000000000E+000
  2.880000000000000E-006    0.000000000000000E+000
  2.900000000000000E-006    0.000000000000000E+000
  2.920000000000000E-006    0.000000000000000E+000
  2.940000000000000E-006    0.000000000000000E+000
  2.960000000000000E-006    0.000000000000000E+000
  2.980000000000000E-006    0.000000000000000E+000
  3.000000000000000E-006    0.000000000000000E+000
  3.020000000000000E-006    0.000000000000000E+000
  3.040000000000000E-006    0.000000000000000E+000
  3.060000000000000E-006    0.000000000000000E+000
  3.080000000000000E-006    0.000000000000000E+000
  3.100000000000000E-006    0.000000000000000E+000
  3.120000000000000E-006    0.000000000000000E+000
  3.140000000000000E-006    0.000000000000000E+000
  3.160000000000000E-006    0.000000000000000E+000
  3.180000000000000E-006    0.000000000000000E+000
  3.200000000000000E-006    0.000000000000000E+000
  3.220000000000000E-006    0.000000000000000E+000
  3.240000000000000E-006    0.000000000000000E+000
  3.260000000000001E-006    0.000000000000000E+000
  3.280000000000000E-006    0.000000000000000E+000
  3.300000000000000E-006    0.000000000000000E+000
  3.320000000000000E-006    0.000000000000000E+000
  3.340000000000000E-006    0.000000000000000E+000
  3.360000000000000E-006    0.000000000000000E+000
  3.380000000000000E-006    0.000000000000000E+000
  3.400000000000000E-006    0.000000000000000E+000
  3.420000000000000E-006    0.000000000000000E+000
  3.440000000000001E-006    0.000000000000000E+000
  3.460000000000000E-006    0.000000000000000E+000
  3.480000000000000E-006    0.000000000000000E+000
  3.500000000000000E-006    0.000000000000000E+000
  3.520000000000000E-006    0.000000000000000E+000
  3.540000000000000E-006    0.000000000000000E+000
  3.560000000000000E-006    0.000000000000000E+000
  3.580000000000000E-006    0.000000000000000E+000
  3.600000000000000E-006    0.000000000000000E+000
  3.620000000000000E-006    0.000000000000000E+000
  3.640000000000000E-006    0.000000000000000E+000
  3.660000000000000E-006    0.000000000000000E+000
  3.680000000000000E-006    0.000000000000000E+000
  3.700000000000001E-006    0.000000000000000E+000
  3.720000000000000E-006    0.000000000000000E+000
  3.740000000000000E-006    0.000000000000000E+000
  3.760000000000000E-006    0.000000000000000E+000
  3.780000000000000E-006    0.000000000000000E+000
  3.800000000000000E-006    0.000000000000000E+000
  3.820000000000001E-006    0.000000000000000E+000
  3.840000000000001E-006    0.000000000000000E+000
  3.860000000000000E-006    0.000000000000000E+000
  3.880000000000000E-006    0.000000000000000E+000
  3.900000000000000E-006    0.000000000000000E+000
  3.920000000000000E-006    0.000000000000000E+000
  3.940000000000000E-006    0.000000000000000E+000
  3.959999999999999E-006    0.000000000000000E+000
  3.980000000000001E-006    0.000000000000000E+000
  4.000000000000001E-006    0.000000000000000E+000
  4.020000000000000E-006    0.000000000000000E+000
  4.040000000000000E-006    0.000000000000000E+000
  4.060000000000000E-006    0.000000000000000E+000
  4.080000000000000E-006    0.000000000000000E+000
  4.100000000000000E-006    0.000000000000000E+000
  4.120000000000000E-006    0.000000000000000E+000
  4.139999999999999E-006    0.000000000000000E+000
  4.160000000000001E-006    0.000000000000000E+000
  4.180000000000001E-006    0.000000000000000E+000
  4.200000000000000E-006    0.000000000000000E+000
  4.220000000000000E-006    0.000000000000000E+000
  4.240000000000000E-006    0.000000000000000E+000
  4.260000000000000E-006    0.000000000000000E+000
  4.280000000000000E-006    0.000000000000000E+000
  4.299999999999999E-006    0.000000000000000E+000
  4.320000000000001E-006    0.000000000000000E+000
  4.340000000000001E-006    0.000000000000000E+000
  4.360000000000001E-006    0.000000000000000E+000
  4.380000000000000E-006    0.000000000000000E+000
  4.400000000000000E-006    1.899750212811641E-037
  4.420000000000000E-006    1.512058537886405E-037
  4.440000000000000E-006   -1.491942845104008E-038
  4.460000000000000E-006   -1.006069951966517E-037
  4.479999999999999E-006   -5.487917488090430E-037
  4.500000000000001E-006    1.310152056784080E-036
  4.520000000000001E-006    1.975130614980685E-036
  4.540000000000001E-006   -1.136181589346769E-036
  4.560000000000000E-006   -1.444271992562090E-036
  4.580000000000000E-006   -4.180300981545289E-036
  4.600000000000000E-006   -4.865332359510338E-037
  4.620000000000000E-006    1.289110013960544E-035
  4.640000000000000E-006    4.671377800709186E-036
  4.659999999999999E-006   -7.258493929493542E-036
  4.680000000000001E-006   -9.489482563676237E-036
  4.700000000000001E-006   -3.206219648218211E-035
  4.720000000000001E-006   -6.135785228774603E-036
  4.740000000000000E-006    7.228701490519818E-035
  4.760000000000000E-006    6.976491277570068E-035
  4.780000000000000E-006    2.499276195369011E-035
  4.800000000000000E-006   -8.483424422084965E-035
  4.820000000000000E-006   -3.131634564130985E-034
  4.839999999999999E-006   -2.222790045312215E-034
  4.860000000000001E-006    2.926784742505873E-034
  4.880000000000001E-006    7.420260313783366E-034
  4.900000000000001E-006    9.098876884832591E-034
  4.920000000000000E-006   -9.217583877788277E-037
  4.940000000000000E-006   -2.263246618226874E-033
  4.960000000000000E-006   -3.367436405284712E-033
  4.980000000000000E-006   -1.203021730041103E-033
  5.000000000000000E-006    4.226131139052931E-033
  5.019999999999999E-006    1.072373204853990E-032
  5.040000000000001E-006    9.559237337561136E-033
  5.060000000000001E-006   -6.451803966028504E-033
  5.080000000000000E-006   -2.892794310213981E-032
  5.100000000000000E-006   -3.787032115111732E-032
  5.120000000000000E-006   -8.694307110287775E-033
  5.140000000000000E-006    6.498460924810799E-032
  5.160000000000000E-006    1.293618590031477E-031
  5.180000000000000E-006    9.237813612082073E-032
  5.199999999999999E-006   -9.368067716184189E-032
  5.220000000000001E-006   -3.543458643245057E-031
  5.240000000000001E-006   -4.376377717222269E-031
  5.260000000000000E-006   -4.899952376326836E-032
  5.280000000000000E-006    7.829712049985857E-031
  5.300000000000000E-006    1.475792231592926E-030
  5.320000000000000E-006    1.061501013935040E-030
  5.340000000000000E-006   -1.077085647403345E-030
  5.360000000000000E-006   -4.024147984972027E-030
  5.380000000000001E-006   -4.976715078348613E-030
  5.400000000000001E-006   -8.973195013450417E-031
  5.420000000000001E-006    8.246382213401041E-030
  5.440000000000000E-006    1.650507409857479E-029
  5.460000000000000E-006    1.314037341750976E-029
  5.480000000000000E-006   -8.991547689015897E-030
  5.500000000000000E-006   -4.182590960142291E-029
  5.520000000000000E-006   -5.736409396320854E-029
  5.539999999999999E-006   -2.097277209748201E-029
  5.560000000000001E-006    7.450074430536443E-029
  5.580000000000001E-006    1.746603791789132E-028
  5.600000000000001E-006    1.693692052573365E-028
  5.620000000000000E-006   -3.416279607220989E-029
  5.640000000000000E-006   -3.905097821470947E-028
  5.660000000000000E-006   -6.390160551234646E-028
  5.680000000000000E-006   -4.003153353306286E-028
  5.700000000000000E-006    5.084633764193835E-028
  5.719999999999999E-006    1.693616559772131E-027
  5.740000000000001E-006    2.095395351260721E-027
  5.760000000000001E-006    5.530539775519990E-028
  5.780000000000001E-006   -3.012267012413758E-027
  5.800000000000000E-006   -6.545000004855184E-027
  5.820000000000000E-006   -6.175531212940474E-027
  5.840000000000000E-006    1.221228134409245E-027
  5.860000000000000E-006    1.400029407461588E-026
  5.880000000000000E-006    2.328935894313171E-026
  5.899999999999999E-006    1.606339192283007E-026
  5.920000000000001E-006   -1.471764674039987E-026
  5.940000000000001E-006   -5.743790278049930E-026
  5.960000000000001E-006   -7.772932672691356E-026
  5.980000000000000E-006   -3.458662509757273E-026
  6.000000000000000E-006    8.279172656880772E-026
  6.020000000000000E-006    2.177541399775531E-025
  6.040000000000000E-006    2.464244081353413E-025
  6.060000000000000E-006    4.692808845824651E-026
  6.079999999999999E-006   -3.747247108692783E-025
  6.100000000000001E-006   -7.818736290921445E-025
  6.120000000000001E-006   -7.502107906980952E-025
  6.140000000000001E-006    6.494998136170584E-026
  6.160000000000000E-006    1.517318163551542E-024
  6.180000000000000E-006    2.702887529013324E-024
  6.200000000000000E-006    2.219615635440107E-024
  6.220000000000000E-006   -8.690492717881211E-025
  6.240000000000000E-006   -5.731058141115187E-024
  6.260000000000001E-006   -9.111252523208003E-024
  6.280000000000001E-006   -6.483314808829148E-024
  6.300000000000001E-006    4.637301323889895E-024
  6.320000000000000E-006    2.063973946683602E-023
  6.340000000000000E-006    3.027696973125649E-023
  6.360000000000000E-006    1.910283499506670E-023
  6.380000000000000E-006   -1.951151531230155E-023
  6.400000000000000E-006   -7.183311736799855E-023
  6.420000000000000E-006   -1.001240937115908E-022
  6.439999999999999E-006   -5.829730589706850E-023
  6.459999999999999E-006    7.228997479305450E-023
  6.480000000000001E-006    2.437311649200234E-022
  6.500000000000000E-006    3.320251482435124E-022
  6.520000000000000E-006    1.888157079489983E-022
  6.540000000000000E-006   -2.441068371585604E-022
  6.560000000000000E-006   -8.107253484041399E-022
  6.580000000000000E-006   -1.109723670327651E-021
  6.599999999999999E-006   -6.561543583676262E-022
  6.619999999999999E-006    7.560411800287525E-022
  6.639999999999999E-006    2.650888189876758E-021
  6.660000000000001E-006    3.745190425456065E-021
  6.680000000000000E-006    2.425888568222467E-021
  6.700000000000000E-006   -2.111071256713052E-021
  6.720000000000000E-006   -8.519211744679143E-021
  6.740000000000000E-006   -1.274384244344217E-020
  6.760000000000000E-006   -9.338072310663221E-021
  6.779999999999999E-006    4.988037263430706E-021
  6.799999999999999E-006    2.681947779932295E-020
  6.819999999999999E-006    4.353137256863772E-020
  6.840000000000001E-006    3.656332682486415E-020
  6.860000000000000E-006   -7.650658916940548E-021
  6.880000000000000E-006   -8.210941199089062E-020
  6.900000000000000E-006   -1.483259460633468E-019
  6.920000000000000E-006   -1.429893850976696E-019
  6.940000000000000E-006   -1.097786341614663E-020
  6.959999999999999E-006    2.413178428227699E-019
  6.979999999999999E-006    5.002990354014495E-019
  6.999999999999999E-006    5.516805817907784E-019
  7.020000000000001E-006    1.771158888852593E-019
  7.040000000000000E-006   -6.650259805057744E-019
  7.060000000000000E-006   -1.656162016882595E-018
  7.080000000000000E-006   -2.083089352413913E-018
  7.100000000000000E-006   -1.106774862755460E-018
  7.120000000000000E-006    1.636509592023492E-018
  7.139999999999999E-006    5.327332608043594E-018
  7.159999999999999E-006    7.653700976368244E-018
  7.179999999999999E-006    5.496436375521069E-018
  7.200000000000001E-006   -3.128318173778448E-018
  7.220000000000000E-006   -1.644269786056641E-017
  7.240000000000000E-006   -2.722703143278496E-017
  7.260000000000000E-006   -2.429155464950224E-017
  7.280000000000000E-006    1.488801026127272E-018
  7.300000000000000E-006    4.780580518332941E-017
  7.319999999999999E-006    9.326270769903103E-017
  7.339999999999999E-006    9.925167454226578E-017
  7.359999999999999E-006    2.772387707431293E-017
  7.380000000000000E-006   -1.267474935825180E-016
  7.400000000000000E-006   -3.054020334875841E-016
  7.420000000000000E-006   -3.807708547957626E-016
  7.440000000000000E-006   -2.051351276041992E-016
  7.460000000000000E-006    2.846237819772899E-016
  7.480000000000000E-006    9.459489862596467E-016
  7.499999999999999E-006    1.379322329806153E-015
  7.519999999999999E-006    1.045077490700523E-015
  7.540000000000001E-006   -4.114191694386523E-016
  7.560000000000000E-006   -2.722978206877441E-015
  7.580000000000000E-006   -4.716382112473241E-015
  7.600000000000000E-006   -4.531215916698570E-015
  7.620000000000000E-006   -5.644531155860927E-016
  7.640000000000000E-006    7.043277762047036E-015
  7.660000000000000E-006    1.513979343125894E-014
  7.679999999999999E-006    1.769021569780408E-014
  7.699999999999999E-006    8.287624413653827E-015
  7.720000000000001E-006   -1.508911843974837E-014
  7.740000000000000E-006   -4.507568985431013E-014
  7.760000000000000E-006   -6.340661990932098E-014
  7.780000000000000E-006   -4.672903915642242E-014
  7.800000000000000E-006    1.919057674864208E-014
  7.820000000000000E-006    1.214921316486184E-013
  7.839999999999999E-006    2.094791327255490E-013
  7.859999999999999E-006    2.047673071138750E-013
  7.879999999999999E-006    4.019165228273346E-014
  7.900000000000001E-006   -2.807207931115524E-013
  7.920000000000000E-006   -6.335061230678886E-013
  7.940000000000000E-006   -7.763966664471657E-013
  7.960000000000000E-006   -4.446236146436818E-013
  7.980000000000000E-006    4.688274150166824E-013
  8.000000000000000E-006    1.717633833094117E-012
  8.019999999999999E-006    2.625735023240820E-012
  8.039999999999999E-006    2.272217327591384E-012
  8.059999999999999E-006   -1.086447439047086E-014
  8.080000000000001E-006   -3.967990894180015E-012
  8.100000000000000E-006   -7.941597382821040E-012
  8.120000000000000E-006   -9.067044090486451E-012
  8.140000000000000E-006   -4.474678435070637E-012
  8.160000000000000E-006    6.657068476365571E-012
  8.180000000000000E-006    2.106811015587763E-011
  8.199999999999999E-006    3.085894064050685E-011
  8.219999999999999E-006    2.582127197090384E-011
  8.239999999999999E-006   -9.952643562154041E-013
  8.260000000000001E-006   -4.615761579484818E-011
  8.280000000000000E-006   -9.105925677343736E-011
  8.300000000000000E-006   -1.043651305546712E-010
  8.320000000000000E-006   -5.488918770160629E-011
  8.340000000000000E-006    6.691120813913668E-011
  8.360000000000000E-006    2.277099460055177E-010
  8.379999999999999E-006    3.449289164854658E-010
  8.399999999999999E-006    3.093467486935604E-010
  8.419999999999999E-006    4.065293931938297E-011
  8.440000000000001E-006   -4.395028223428557E-010
  8.460000000000000E-006   -9.540365138827222E-010
  8.480000000000000E-006   -1.184627753488317E-009
  8.500000000000000E-006   -7.881681750911460E-010
  8.520000000000000E-006    3.946519072795709E-010
  8.540000000000000E-006    2.114992625198089E-009
  8.559999999999999E-006    3.610870453443862E-009
  8.579999999999999E-006    3.765275934990442E-009
  8.600000000000001E-006    1.593472887507360E-009
  8.620000000000000E-006   -3.042383541989551E-009
  8.640000000000000E-006   -8.800722248868846E-009
  8.660000000000000E-006   -1.276060144226350E-008
  8.680000000000000E-006   -1.125071555338643E-008
  8.700000000000000E-006   -1.670283062366555E-009
  8.720000000000000E-006    1.521101621544759E-008
  8.739999999999999E-006    3.359737627373234E-008
  8.759999999999999E-006    4.307175737528559E-008
  8.780000000000001E-006    3.208391886201334E-008
  8.800000000000000E-006   -5.704237301959433E-009
  8.820000000000000E-006   -6.430669584913646E-008
  8.840000000000000E-006   -1.213520217679172E-007
  8.860000000000000E-006   -1.413657819281471E-007
  8.880000000000000E-006   -8.890614036677524E-008
  8.899999999999999E-006    5.027118817702212E-008
  8.919999999999999E-006    2.476810226994664E-007
  8.939999999999999E-006    4.226588491018913E-007
  8.960000000000001E-006    4.578074299901503E-007
  8.980000000000000E-006    2.452898747799788E-007
  9.000000000000000E-006   -2.444362635641874E-007
  9.020000000000000E-006   -8.977813656107289E-007
  9.040000000000000E-006   -1.436757836890640E-006
  9.060000000000000E-006   -1.479422490548323E-006
  9.079999999999999E-006   -6.960201830389040E-007
  9.099999999999999E-006    9.713130167652237E-007
  9.119999999999999E-006    3.112235837993131E-006
  9.140000000000001E-006    4.799875698368210E-006
  9.160000000000000E-006    4.804667080672794E-006
  9.180000000000000E-006    2.104250830306743E-006
  9.200000000000000E-006   -3.421916097387558E-006
  9.220000000000000E-006   -1.039156306045907E-005
  9.240000000000000E-006   -1.579914623219476E-005
  9.259999999999999E-006   -1.572040894252667E-005
  9.279999999999999E-006   -6.931204819649131E-006
  9.299999999999999E-006    1.091966190620301E-005
  9.320000000000001E-006    3.344909143685696E-005
  9.340000000000000E-006    5.117728903047238E-005
  9.360000000000000E-006    5.170940009306777E-005
  9.380000000000000E-006    2.472590654255806E-005
  9.400000000000000E-006   -3.131094616963155E-005
  9.420000000000000E-006   -1.033490757582728E-004
  9.439999999999999E-006   -1.624172141764750E-004
  9.459999999999999E-006   -1.699503394813453E-004
  9.479999999999999E-006   -9.265910914428905E-005
  9.500000000000001E-006    7.716230849384511E-005
  9.520000000000000E-006    3.035007291121924E-004
  9.540000000000000E-006    5.012126336960849E-004
  9.560000000000000E-006    5.529358638058196E-004
  9.580000000000000E-006    3.515534508164471E-004
  9.600000000000000E-006   -1.399148054357213E-004
  9.619999999999999E-006   -8.321669903342139E-004
  9.639999999999999E-006   -1.487394140351012E-003
  9.660000000000001E-006   -1.759592711858915E-003
  9.680000000000000E-006   -1.309369447737635E-003
  9.700000000000000E-006    2.569489083045713E-005
  9.720000000000000E-006    2.060686910160088E-003
  9.740000000000000E-006    4.175999192876003E-003
  9.760000000000000E-006    5.396158956745830E-003
  9.780000000000000E-006    4.678081801566161E-003
  9.799999999999999E-006    1.372580900332040E-003
  9.819999999999999E-006   -4.276204370126480E-003
  9.840000000000001E-006   -1.080996498199107E-002
  9.860000000000000E-006   -1.564678514048142E-002
  9.880000000000000E-006   -1.573160747346844E-002
  9.900000000000000E-006   -8.704918835250692E-003
  9.920000000000000E-006    5.706864484825540E-003
  9.940000000000000E-006    2.460527068409973E-002
  9.960000000000000E-006    4.175573142927110E-002
  9.979999999999999E-006    4.881897911432938E-002
  9.999999999999999E-006    3.803747775608511E-002
  1.002000000000000E-005    5.830146525965377E-003
  1.004000000000000E-005   -4.386415924973737E-002
  1.006000000000000E-005   -9.801392911441900E-002
  1.008000000000000E-005   -0.136066483998066     
  1.010000000000000E-005   -0.135264009934304     
  1.012000000000000E-005   -7.899563613912211E-002
  1.014000000000000E-005    3.401952707738870E-002
  1.016000000000000E-005    0.183068746782482     
  1.018000000000000E-005    0.324862190657143     
  1.020000000000000E-005    0.401474724850646     
  1.022000000000000E-005    0.356826041442756     
  1.024000000000000E-005    0.158479217105501     
  1.026000000000000E-005   -0.181521768793169     
  1.028000000000000E-005   -0.594742789565605     
  1.030000000000000E-005   -0.960630218256787     
  1.032000000000000E-005    -1.13070280929133     
  1.034000000000000E-005   -0.970553327790599     
  1.036000000000000E-005   -0.410779138505585     
  1.038000000000000E-005    0.507630688041500     
  1.040000000000000E-005     1.61017067981756     
  1.042000000000000E-005     2.60199983664049     
  1.044000000000000E-005     3.12360917674854     
  1.046000000000000E-005     2.84338714387722     
  1.048000000000000E-005     1.56861927054258     
  1.050000000000000E-005   -0.653829626102783     
  1.052000000000000E-005    -3.47988666919229     
  1.054000000000000E-005    -6.28167800199840     